# vtk DataFile Version 3.0
vtk output
ASCII
DATASET UNSTRUCTURED_GRID
POINTS 5233 float
9.997500e-001	-3.632878e-005	0.0	9.990000e-001	-1.452424e-004	0.0	9.977600e-001	-3.249919e-004	0.0	9.960200e-001	-5.764004e-004	0.0	9.937800e-001	-8.985275e-004	0.0	9.910500e-001	-1.289098e-003	0.0	9.878400e-001	-1.747145e-003	0.0	9.841300e-001	-2.279270e-003	0.0	9.799500e-001	-2.890541e-003	0.0	9.752800e-001	-3.600369e-003	0.0	9.701500e-001	-4.426909e-003	0.0	9.645400e-001	-5.398593e-003	0.0	9.584700e-001	-6.533541e-003	0.0	9.519400e-001	-7.842671e-003	0.0	9.449600e-001	-9.319805e-003	0.0	9.375400e-001	-1.094240e-002	0.0	9.296900e-001	-1.267446e-002	0.0	9.214000e-001	-1.447620e-002	0.0	9.127000e-001	-1.629680e-002	0.0	9.035800e-001	-1.809680e-002	0.0	8.940600e-001	-1.983709e-002	0.0	8.841500e-001	-2.148950e-002	0.0	8.738500e-001	-2.303687e-002	0.0	8.631800e-001	-2.446828e-002	0.0	8.521600e-001	-2.578213e-002	0.0	8.407700e-001	-2.698873e-002	0.0	8.290500e-001	-2.809763e-002	0.0	8.170100e-001	-2.912641e-002	0.0	8.046400e-001	-3.009666e-002	0.0	7.919700e-001	-3.102760e-002	0.0	7.790100e-001	-3.193955e-002	0.0	7.657800e-001	-3.285008e-002	0.0	7.522800e-001	-3.377509e-002	0.0	7.385200e-001	-3.472611e-002	0.0	7.245300e-001	-3.570931e-002	0.0	7.103200e-001	-3.672834e-002	0.0	6.958900e-001	-3.778414e-002	0.0	6.812700e-001	-3.887252e-002	0.0	6.664700e-001	-3.998858e-002	0.0	6.515000e-001	-4.112592e-002	0.0	6.363800e-001	-4.227660e-002	0.0	6.211300e-001	-4.343246e-002	0.0	6.057600e-001	-4.458631e-002	0.0	5.902800e-001	-4.573145e-002	0.0	5.747100e-001	-4.686109e-002	0.0	5.590600e-001	-4.796986e-002	0.0	5.433600e-001	-4.905164e-002	0.0	5.276100e-001	-5.010294e-002	0.0	5.118400e-001	-5.111863e-002	0.0	4.960500e-001	-5.209580e-002	0.0	4.802700e-001	-5.302977e-002	0.0	4.645100e-001	-5.391715e-002	0.0	4.487800e-001	-5.475445e-002	0.0	4.331100e-001	-5.553705e-002	0.0	4.175000e-001	-5.626186e-002	0.0	4.019700e-001	-5.692470e-002	0.0	3.865400e-001	-5.752149e-002	0.0	3.712300e-001	-5.804838e-002	0.0	3.560400e-001	-5.850233e-002	0.0	3.409900e-001	-5.887984e-002	0.0	3.261100e-001	-5.917769e-002	0.0	3.114000e-001	-5.939375e-002	0.0	2.968700e-001	-5.952595e-002	0.0	2.825500e-001	-5.957258e-002	0.0	2.684500e-001	-5.953264e-002	0.0	2.545700e-001	-5.940539e-002	0.0	2.409400e-001	-5.919068e-002	0.0	2.275700e-001	-5.888862e-002	0.0	2.144700e-001	-5.849950e-002	0.0	2.016600e-001	-5.802411e-002	0.0	1.891400e-001	-5.746259e-002	0.0	1.769300e-001	-5.681577e-002	0.0	1.650400e-001	-5.608398e-002	0.0	1.534900e-001	-5.526802e-002	0.0	1.422900e-001	-5.436788e-002	0.0	1.314400e-001	-5.338217e-002	0.0	1.209500e-001	-5.230969e-002	0.0	1.108500e-001	-5.115112e-002	0.0	1.011300e-001	-4.990230e-002	0.0	9.181000e-002	-4.856199e-002	0.0	8.290000e-002	-4.712741e-002	0.0	7.440000e-002	-4.559360e-002	0.0	6.633000e-002	-4.395874e-002	0.0	5.869000e-002	-4.221703e-002	0.0	5.149000e-002	-4.036441e-002	0.0	4.474000e-002	-3.839710e-002	0.0	3.844000e-002	-3.630845e-002	0.0	3.260000e-002	-3.409495e-002	0.0	2.723000e-002	-3.175446e-002	0.0	2.232000e-002	-2.927607e-002	0.0	1.790000e-002	-2.667036e-002	0.0	1.395000e-002	-2.392210e-002	0.0	1.049000e-002	-2.104245e-002	0.0	7.520000e-003	-1.803372e-002	0.0	5.040000e-003	-1.490093e-002	0.0	3.050000e-003	-1.165225e-002	0.0	1.560000e-003	-8.325229e-003	0.0	5.600000e-004	-4.928899e-003	0.0	6.000000e-005	-1.549973e-003	0.0	0.000000e+000	0.000000e+000	0.0	6.000000e-005	1.303536e-003	0.0	5.600000e-004	3.833050e-003	0.0	1.560000e-003	6.224005e-003	0.0	3.050000e-003	8.500354e-003	0.0	5.040000e-003	1.069398e-002	0.0	7.520000e-003	1.280128e-002	0.0	1.049000e-002	1.483077e-002	0.0	1.395000e-002	1.678859e-002	0.0	1.790000e-002	1.867985e-002	0.0	2.232000e-002	2.050140e-002	0.0	2.723000e-002	2.226694e-002	0.0	3.260000e-002	2.397072e-002	0.0	3.844000e-002	2.562123e-002	0.0	4.474000e-002	2.721979e-002	0.0	5.149000e-002	2.876776e-002	0.0	5.869000e-002	3.026828e-002	0.0	6.633000e-002	3.172158e-002	0.0	7.440000e-002	3.312753e-002	0.0	8.290000e-002	3.448704e-002	0.0	9.181000e-002	3.579723e-002	0.0	1.011300e-001	3.705785e-002	0.0	1.108500e-001	3.826662e-002	0.0	1.209500e-001	3.941989e-002	0.0	1.314400e-001	4.051717e-002	0.0	1.422900e-001	4.155356e-002	0.0	1.534900e-001	4.252654e-002	0.0	1.650400e-001	4.343455e-002	0.0	1.769300e-001	4.427536e-002	0.0	1.891400e-001	4.504663e-002	0.0	2.016600e-001	4.574738e-002	0.0	2.144700e-001	4.637681e-002	0.0	2.275700e-001	4.693584e-002	0.0	2.409400e-001	4.742516e-002	0.0	2.545700e-001	4.784665e-002	0.0	2.684500e-001	4.820275e-002	0.0	2.825500e-001	4.849604e-002	0.0	2.968700e-001	4.873021e-002	0.0	3.114000e-001	4.890882e-002	0.0	3.261100e-001	4.903524e-002	0.0	3.409900e-001	4.911294e-002	0.0	3.560400e-001	4.914490e-002	0.0	3.712300e-001	4.913334e-002	0.0	3.865400e-001	4.907982e-002	0.0	4.019700e-001	4.898482e-002	0.0	4.175000e-001	4.884787e-002	0.0	4.331100e-001	4.866750e-002	0.0	4.487800e-001	4.844131e-002	0.0	4.645100e-001	4.816580e-002	0.0	4.802700e-001	4.783736e-002	0.0	4.960500e-001	4.745177e-002	0.0	5.118400e-001	4.700485e-002	0.0	5.276100e-001	4.649350e-002	0.0	5.433600e-001	4.591459e-002	0.0	5.590600e-001	4.526728e-002	0.0	5.747100e-001	4.455108e-002	0.0	5.902800e-001	4.376853e-002	0.0	6.057600e-001	4.292297e-002	0.0	6.211300e-001	4.201986e-002	0.0	6.363800e-001	4.106522e-002	0.0	6.515000e-001	4.006564e-002	0.0	6.664700e-001	3.902821e-002	0.0	6.812700e-001	3.795916e-002	0.0	6.958900e-001	3.686213e-002	0.0	7.103200e-001	3.573807e-002	0.0	7.245300e-001	3.458620e-002	0.0	7.385200e-001	3.339982e-002	0.0	7.522800e-001	3.216945e-002	0.0	7.657800e-001	3.088477e-002	0.0	7.790100e-001	2.953244e-002	0.0	7.919700e-001	2.809872e-002	0.0	8.046400e-001	2.657531e-002	0.0	8.170100e-001	2.495938e-002	0.0	8.290500e-001	2.326076e-002	0.0	8.407700e-001	2.149637e-002	0.0	8.521600e-001	1.970002e-002	0.0	8.631800e-001	1.792490e-002	0.0	8.738500e-001	1.622636e-002	0.0	8.841500e-001	1.467210e-002	0.0	8.940600e-001	1.332614e-002	0.0	9.035800e-001	1.223390e-002	0.0	9.127000e-001	1.141333e-002	0.0	9.214000e-001	1.084234e-002	0.0	9.296900e-001	1.045171e-002	0.0	9.375400e-001	1.013588e-002	0.0	9.449600e-001	9.768935e-003	0.0	9.519400e-001	9.238058e-003	0.0	9.584700e-001	8.475596e-003	0.0	9.645400e-001	7.481235e-003	0.0	9.701500e-001	6.319732e-003	0.0	9.752800e-001	5.103129e-003	0.0	9.799500e-001	3.940143e-003	0.0	9.841300e-001	2.923782e-003	0.0	9.878400e-001	2.090116e-003	0.0	9.910500e-001	1.444553e-003	0.0	9.937800e-001	9.559538e-004	0.0	9.960200e-001	5.925191e-004	0.0	9.977600e-001	3.280044e-004	0.0	9.990000e-001	1.455186e-004	0.0	9.997500e-001	3.633317e-005	0.0	1.000000e+000	0.000000e+000	0.0	1.984229e+001	2.506660e+000	0.0	1.937166e+001	4.973800e+000	0.0	1.859553e+001	7.362490e+000	0.0	1.752613e+001	9.635070e+000	0.0	1.618034e+001	1.175571e+001	0.0	1.457937e+001	1.369094e+001	0.0	1.274848e+001	1.541027e+001	0.0	1.071654e+001	1.688656e+001	0.0	8.515590e+000	1.809654e+001	0.0	6.180340e+000	1.902113e+001	0.0	3.747630e+000	1.964575e+001	0.0	1.255810e+000	1.996053e+001	0.0	-1.255810e+000	1.996053e+001	0.0	-3.747630e+000	1.964574e+001	0.0	-6.180340e+000	1.902113e+001	0.0	-8.515590e+000	1.809654e+001	0.0	-1.071654e+001	1.688656e+001	0.0	-1.274848e+001	1.541026e+001	0.0	-1.457937e+001	1.369094e+001	0.0	-1.618034e+001	1.175570e+001	0.0	-1.752613e+001	9.635070e+000	0.0	-1.859553e+001	7.362490e+000	0.0	-1.937166e+001	4.973800e+000	0.0	-1.984229e+001	2.506660e+000	0.0	-2.000000e+001	0.000000e+000	0.0	-1.984229e+001	-2.506670e+000	0.0	-1.937166e+001	-4.973800e+000	0.0	-1.859553e+001	-7.362490e+000	0.0	-1.752613e+001	-9.635080e+000	0.0	-1.618034e+001	-1.175571e+001	0.0	-1.457937e+001	-1.369094e+001	0.0	-1.274848e+001	-1.541027e+001	0.0	-1.071653e+001	-1.688656e+001	0.0	-8.515580e+000	-1.809654e+001	0.0	-6.180340e+000	-1.902113e+001	0.0	-3.747620e+000	-1.964575e+001	0.0	-1.255810e+000	-1.996053e+001	0.0	1.255810e+000	-1.996053e+001	0.0	3.747630e+000	-1.964574e+001	0.0	6.180340e+000	-1.902113e+001	0.0	8.515590e+000	-1.809654e+001	0.0	1.071654e+001	-1.688656e+001	0.0	1.274848e+001	-1.541026e+001	0.0	1.457937e+001	-1.369094e+001	0.0	1.618034e+001	-1.175570e+001	0.0	1.752614e+001	-9.635070e+000	0.0	1.859553e+001	-7.362490e+000	0.0	1.937166e+001	-4.973790e+000	0.0	1.984229e+001	-2.506660e+000	0.0	2.000000e+001	0.000000e+000	0.0	6.068145e-002	-5.001098e-002	0.0	6.600941e-001	-5.440990e-002	0.0	4.256560e-001	6.308767e-002	0.0	6.896882e-001	5.073544e-002	0.0	3.793542e-001	-7.186089e-002	0.0	9.994633e-001	-7.324443e-004	0.0	9.985447e-001	-1.331752e-003	0.0	7.735950e-001	-4.453612e-002	0.0	6.897095e-001	-5.187666e-002	0.0	-1.379363e-003	5.865595e-003	0.0	7.465624e-001	-4.695209e-002	0.0	5.833260e-001	5.834269e-002	0.0	9.927703e-001	-3.613365e-003	0.0	9.898675e-001	-4.493964e-003	0.0	5.988900e-001	5.744594e-002	0.0	7.185708e-001	-4.938437e-002	0.0	-1.644801e-003	5.698651e-004	0.0	9.864750e-001	-5.453236e-003	0.0	9.826026e-001	-6.486630e-003	0.0	-1.623222e-003	-7.544140e-003	0.0	6.450413e-001	-5.568123e-002	0.0	8.243349e-001	-3.942175e-002	0.0	7.995489e-001	-4.207399e-002	0.0	3.486105e-001	6.298717e-002	0.0	8.478112e-001	-3.647371e-002	0.0	2.474525e-001	6.019175e-002	0.0	8.699047e-001	-3.312180e-002	0.0	1.022316e-002	1.903166e-002	0.0	8.904929e-001	-2.934793e-002	0.0	7.701668e-002	-5.412860e-002	0.0	9.094875e-001	-2.524099e-002	0.0	-2.006666e-003	-3.725337e-003	0.0	9.423628e-001	-1.692943e-002	0.0	9.268006e-001	-2.100531e-002	0.0	1.767148e-002	-3.177977e-002	0.0	4.259588e-001	-7.024902e-002	0.0	8.590409e-001	-3.484954e-002	0.0	9.561502e-001	-1.328105e-002	0.0	9.782462e-001	-7.623186e-003	0.0	9.681275e-001	-1.018601e-002	0.0	1.584142e-001	-6.635055e-002	0.0	9.001972e-001	-2.732601e-002	0.0	7.602084e-001	-4.574512e-002	0.0	9.971180e-001	-2.072170e-003	0.0	5.990779e-001	-5.943534e-002	0.0	4.416543e-001	-6.955750e-002	0.0	5.364504e-001	-6.406366e-002	0.0	4.732077e-001	-6.796701e-002	0.0	5.048433e-001	-6.612533e-002	0.0	4.890147e-001	-6.707509e-002	0.0	1.250542e-001	-6.252008e-002	0.0	2.762504e-002	-3.764600e-002	0.0	3.947965e-001	-7.140505e-002	0.0	4.609592e-002	-4.544
[...]
POINT_DATA 5233

SCALARS Density float 1
LOOKUP_TABLE default
1.200229e+000	1.178596e+000	1.164336e+000	1.153075e+000	1.144004e+000	1.136997e+000	1.131606e+000	1.127763e+000	1.124944e+000	1.122389e+000	1.119053e+000	1.113938e+000	1.106207e+000	1.095401e+000	1.081457e+000	1.064725e+000	1.045852e+000	1.025682e+000	1.005193e+000	9.855167e-001	9.678466e-001	9.532284e-001	9.424803e-001	9.360154e-001	9.336967e-001	9.348728e-001	9.386167e-001	9.439451e-001	9.499247e-001	9.558487e-001	9.611735e-001	9.655440e-001	9.687890e-001	9.708020e-001	9.716290e-001	9.713185e-001	9.700086e-001	9.678286e-001	9.649352e-001	9.614730e-001	9.575819e-001	9.533809e-001	9.489744e-001	9.444297e-001	9.397967e-001	9.351061e-001	9.303920e-001	9.256646e-001	9.208967e-001	9.160022e-001	9.109296e-001	9.057198e-001	9.004431e-001	8.950854e-001	8.895130e-001	8.836604e-001	8.776380e-001	8.717929e-001	8.662672e-001	8.607184e-001	8.543466e-001	8.463722e-001	8.370365e-001	8.279749e-001	8.211019e-001	8.171977e-001	8.159745e-001	8.165152e-001	8.179675e-001	8.197347e-001	8.216414e-001	8.237832e-001	8.263434e-001	8.292639e-001	8.324007e-001	8.356622e-001	8.392684e-001	8.435314e-001	8.485786e-001	8.545431e-001	8.616569e-001	8.701279e-001	8.802932e-001	8.924489e-001	9.070094e-001	9.245140e-001	9.454077e-001	9.702575e-001	9.997733e-001	1.034299e+000	1.074123e+000	1.119045e+000	1.167636e+000	1.218003e+000	1.266966e+000	1.309460e+000	1.337964e+000	1.350335e+000	1.336720e+000	1.306035e+000	1.283919e+000	1.231561e+000	1.129322e+000	1.044144e+000	9.716494e-001	9.126962e-001	8.677848e-001	8.350125e-001	8.108568e-001	7.928661e-001	7.794460e-001	7.693581e-001	7.619162e-001	7.562368e-001	7.518264e-001	7.485751e-001	7.462203e-001	7.443892e-001	7.426766e-001	7.406540e-001	7.382196e-001	7.356418e-001	7.332253e-001	7.309161e-001	7.284023e-001	7.254731e-001	7.222799e-001	7.189188e-001	7.154288e-001	7.118565e-001	7.084414e-001	7.054066e-001	7.029130e-001	7.009434e-001	6.994518e-001	6.983453e-001	6.975675e-001	6.970695e-001	6.967795e-001	6.966622e-001	6.967001e-001	6.968589e-001	6.970706e-001	6.971499e-001	6.970548e-001	6.966995e-001	6.963733e-001	6.964262e-001	6.968285e-001	6.949152e-001	6.848935e-001	6.687441e-001	6.858018e-001	8.006889e-001	9.365327e-001	9.626460e-001	9.473613e-001	9.351972e-001	9.334126e-001	9.340777e-001	9.341074e-001	9.342246e-001	9.348157e-001	9.355608e-001	9.361116e-001	9.365645e-001	9.372236e-001	9.385801e-001	9.412256e-001	9.458363e-001	9.529955e-001	9.629951e-001	9.758347e-001	9.910590e-001	1.007796e+000	1.024851e+000	1.040929e+000	1.054728e+000	1.064824e+000	1.069843e+000	1.068506e+000	1.059815e+000	1.043370e+000	1.020592e+000	9.964153e-001	9.783793e-001	9.751161e-001	9.918889e-001	1.024279e+000	1.059804e+000	1.090466e+000	1.114314e+000	1.131040e+000	1.142029e+000	1.149255e+000	1.155689e+000	1.163195e+000	1.174181e+000	1.189729e+000	1.179721e+000	9.997320e-001	9.998389e-001	9.997950e-001	9.997029e-001	9.996147e-001	9.995099e-001	9.993846e-001	9.992277e-001	9.990581e-001	9.989328e-001	9.988562e-001	9.988991e-001	9.990370e-001	9.993194e-001	9.995624e-001	9.997678e-001	9.998892e-001	9.999701e-001	1.000027e+000	1.000056e+000	1.000076e+000	1.000087e+000	1.000097e+000	1.000106e+000	1.000113e+000	1.000122e+000	1.000135e+000	1.000153e+000	1.000176e+000	1.000211e+000	1.000252e+000	1.000319e+000	1.000386e+000	1.000502e+000	1.000613e+000	1.000754e+000	1.000908e+000	1.000981e+000	1.001014e+000	1.000952e+000	1.000878e+000	1.000757e+000	1.000643e+000	1.000529e+000	1.000421e+000	1.000303e+000	1.000217e+000	1.000171e+000	9.999409e-001	9.996566e-001	9.048113e-001	9.632648e-001	6.995039e-001	9.376539e-001	8.778710e-001	1.181819e+000	1.169976e+000	9.642939e-001	9.686145e-001	1.227666e+000	9.697385e-001	9.753924e-001	1.139811e+000	1.133407e+000	9.612841e-001	9.710636e-001	1.307367e+000	1.128287e+000	1.124150e+000	1.341052e+000	9.598136e-001	9.460383e-001	9.554999e-001	6.993726e-001	9.411701e-001	7.069339e-001	9.475127e-001	9.106764e-001	9.686166e-001	8.807489e-001	1.001183e+000	1.344660e+000	1.071111e+000	1.037770e+000	1.085486e+000	8.949916e-001	9.425835e-001	1.096214e+000	1.120461e+000	1.111659e+000	8.352297e-001	9.838925e-001	9.675075e-001	1.157478e+000	9.476380e-001	9.002425e-001	9.296118e-001	9.104689e-001	9.203414e-001	9.154915e-001	8.466709e-001	1.014490e+000	8.836455e-001	9.385470e-001	8.894491e-001	8.548259e-001	8.673767e-001	9.852726e-001	8.365361e-001	1.055223e+000	8.387915e-001	8.270261e-001	8.714795e-001	8.569772e-001	9.387453e-001	8.320249e-001	9.519098e-001	9.562713e-001	1.047906e+000	1.147796e+000	1.215007e+000	8.442595e-001	1.019462e+000	1.084887e+000	1.116554e+000	1.155647e+000	9.426152e-001	8.214723e-001	9.341936e-001	9.709064e-001	9.602039e-001	8.513719e-001	8.229946e-001	9.432405e-001	9.662432e-001	9.202834e-001	1.257900e+000	1.126660e+000	8.724814e-001	8.293350e-001	1.212660e+000	8.216188e-001	8.636403e-001	8.459850e-001	8.235460e-001	9.053744e-001	9.702622e-001	1.282560e+000	1.325449e+000	6.715546e-001	1.323523e+000	8.043789e-001	7.667002e-001	7.808717e-001	7.433360e-001	6.996049e-001	1.155848e+000	6.811356e-001	6.995065e-001	1.050981e+000	1.001485e+000	1.054174e+000	6.998462e-001	6.993424e-001	6.993992e-001	1.047040e+000	1.061340e+000	7.554396e-001	1.077652e+000	9.936654e-001	1.014677e+000	7.496492e-001	7.619760e-001	7.018177e-001	7.048097e-001	7.277425e-001	7.001208e-001	6.991295e-001	6.995293e-001	7.346795e-001	7.404939e-001	9.366352e-001	7.201511e-001	7.127207e-001	9.374009e-001	8.993849e-001	9.412696e-001	9.394221e-001	9.554687e-001	9.452918e-001	1.002354e+000	9.749105e-001	1.060162e+000	1.031659e+000	9.997467e-001	1.057027e+000	1.022950e+000	1.017305e+000	1.044318e+000	9.639695e-001	9.879153e-001	9.427846e-001	9.493539e-001	9.385167e-001	9.402807e-001	9.370620e-001	9.372967e-001	7.159347e-001	9.422659e-001	7.163247e-001	7.095808e-001	7.313347e-001	7.240207e-001	7.728848e-001	7.377346e-001	8.732653e-001	7.911195e-001	8.249226e-001	1.016945e+000	1.105050e+000	9.505879e-001	8.618290e-001	9.250213e-001	1.084153e+000	8.217070e-001	9.583751e-001	7.526559e-001	7.583741e-001	7.031207e-001	7.464449e-001	1.099984e+000	1.117396e+000	7.008317e-001	1.130296e+000	1.139883e+000	6.996517e-001	6.992992e-001	1.032099e+000	1.200263e+000	1.165953e+000	1.176123e+000	9.559897e-001	9.600749e-001	1.147896e+000	6.954014e-001	1.296028e+000	1.170464e+000	8.917445e-001	8.425798e-001	8.285846e-001	7.716954e-001	1.212489e+000	1.266245e+000	8.380728e-001	9.691169e-001	1.015076e+000	1.203843e+000	9.594818e-001	9.672334e-001	9.636090e-001	1.128982e+000	8.627331e-001	9.500595e-001	9.501398e-001	8.820586e-001	1.322977e+000	8.308699e-001	1.126338e+000	1.095881e+000	8.458890e-001	9.702838e-001	9.617583e-001	9.054505e-001	8.920100e-001	8.842999e-001	9.843539e-001	9.601056e-001	9.857970e-001	8.741674e-001	9.404728e-001	9.985403e-001	7.554098e-001	9.406395e-001	7.377202e-001	1.035176e+000	1.118119e+000	7.030032e-001	6.905851e-001	1.011149e+000	1.044454e+000	1.129140e+000	1.014186e+000	1.087236e+000	7.147996e-001	7.037390e-001	7.180623e-001	7.591751e-001	9.647584e-001	8.332304e-001	9.413707e-001	7.450999e-001	7.910510e-001	1.046340e+000	1.138299e+000	1.050884e+000	8.419369e-001	1.210678e+000	1.155395e+000	1.146654e+000	1.037486e+000	1.153208e+000	1.241590e+000	1.332059e+000	1.315706e+000	1.089541e+000	1.215726e+000	9.172007e-001	1.159295e+000	1.141550e+000	7.023657e-001	9.335667e-001	1.123961e+000	9.611717e-001	9.684417e-001	1.134738e+000	1.335487e+000	9.004588e-001	7.023533e-001	9.489485e-001	7.076031e-001	9.540088e-001	9.714410e-001	9.036277e-001	9.991743e-001	1.031299e+000	1.074973e+000	1.024637e+000	1.086389e+000	1.103571e+000	1.119383e+000	8.549062e-001	9.687899e-001	9.666019e-001	1.149693e+000	9.104053e-001	9.153413e-001	9.201081e-001	1.055673e+000	8.898687e-001	8.953210e-001	8.687170e-001	9.726875e-001	1.047050e+000	1.061764e+000	8.502341e-001	8.735229e-001	9.379707e-001	9.507076e-001	1.109728e+000	1.114820e+000	9.706504e-001	9.701827e-001	8.663057e-001	8.601699e-001	9.423291e-001	9.465810e-001	9.515508e-001	9.331191e-001	1.164684e+000	8.738142e-001	8.788948e-001	8.386324e-001	8.357853e-001	8.289649e-001	8.279450e-001	8.463991e-001	8.551901e-001	8.286627e-001	1.300782e+000	1.276301e+000	8.011622e-001	1.104301e+000	6.739028e-001	7.000652e-001	7.025988e-001	7.026503e-001	1.067500e+000	1.026979e+000	1.047384e+000	7.024022e-001	7.024748e-001	7.023370e-001	1.052680e+000	1.016769e+000	7.767344e-001	7.830251e-001	7.119919e-001	7.095746e-001	7.414636e-001	7.487011e-001	7.520252e-001	9.586740e-001	9.451703e-001	9.438456e-001	9.532842e-001	9.863078e-001	1.053788e+000	1.023847e+000	1.011339e+000	9.753511e-001	9.660296e-001	9.495030e-001	9.469451e-001	9.426456e-001	9.415422e-001	9.408837e-001	9.410946e-001	8.265888e-001	6.940634e-001	9.419512e-001	9.500373e-001	7.216516e-001	7.256260e-001	7.297291e-001	7.338557e-001	9.045507e-001	8.139179e-001	8.298916e-001	9.563754e-001	9.528396e-001	9.246820e-001	9.291357e-001	1.094761e+000	8.496512e-001	7.632158e-001	7.673364e-001	7.047111e-001	7.059828e-001	7.024007e-001	7.025701e-001	1.027202e+000	1.038385e+000	9.546504e-001	9.583686e-001	9.969136e-001	1.305452e+000	8.318837e-001	1.317659e+000	8.907913e-001	8.476721e-001	9.640382e-001	9.334414e-001	1.026915e+000	1.119462e+000	1.108356e+000	1.033196e+000	1.102565e+000	1.129392e+000	1.165371e+000	1.178620e+000	1.150323e+000	1.198451e+000	1.093616e+000	1.287962e+000	8.927840e-001	1.041020e+000	1.129415e+000	9.246854e-001	1.170776e+000	1.227255e+000	9.696107e-001	1.284163e+000	9.704004e-001	1.126075e+000	9.663679e-001	1.194187e+000	8.703511e-001	9.604181e-001	9.681882e-001	1.135918e+000	1.160241e+000	1.079771e+000	6.856186e-001	1.023911e+000	9.438841e-001	1.137194e+000	6.966685e-001	7.145313e-001	7.074604e-001	7.487275e-001	7.913108e-001	1.172105e+000	1.300556e+000	1.198021e+000	9.305381e-001	1.249360e+000	1.095746e+000	9.032796e-001	1.314555e+000	8.531022e-001	9.106912e-001	1.062805e+000	1.006938e+000	9.964333e-001	9.620742e-001	9.436348e-001	1.095186e+000	1.025205e+000	1.043356e+000	1.036798e+000	7.087101e-001	7.121865e-001	7.238095e-001	7.691043e-001	9.636212e-001	9.661392e-001	8.397154e-001	9.662428e-001	7.526512e-001	1.063218e+000	1.145320e+000	1.052971e+000	1.151944e+000	1.257471e+000	1.319200e+000	1.033828e+000	1.186807e+000	1.177863e+000	1.102598e+000	1.123880e+000	9.732474e-001	9.059328e-001	7.055400e-001	9.560425e-001	9.571138e-001	9.749760e-001	9.859410e-001	9.293690e-001	9.154197e-001	9.986588e-001	1.012555e+000	1.077983e+000	1.087605e+000	1.118750e+000	9.684877e-001	9.664872e-001	1.142689e+000	9.154967e-001	9.202514e-001	8.961045e-001	9.010991e-001	1.007893e+000	1.054481e+000	1.066866e+000	8.633750e-001	8.580349e-001	9.376753e-001	9.418576e-001	1.108468e+000	1.113684e+000	9.704906e-001	9.698217e-001	8.837371e-001	8.757591e-001	8.690292e-001	9.459628e-001	9.499382e-001	9.848975e-001	9.640564e-001	9.454933e-001	8.756463e-001	8.805268e-001	8.855142e-001	8.490940e-001	8.456562e-001	8.425722e-001	8.373040e-001	8.355505e-001	8.559220e-001	8.637964e-001	8.351128e-001	8.207080e-001	7.036835e-001	7.055411e-001	1.046814e+000	7.062046e-001	7.059306e-001	7.057696e-001	7.055359e-001	1.046104e+000	7.992513e-001	8.089330e-001	7.172113e-001	7.203869e-001	7.567479e-001	7.611523e-001	7.651983e-001	9.488038e-001	1.048242e+000	1.047281e+000	1.028165e+000	1.018143e+000	1.007454e+000	9.859059e-001	9.766065e-001	9.685229e-001	9.572211e-001	9.535212e-001	9.509093e-001	9.472335e-001	9.456906e-001	9.445069e-001	9.445708e-001	7.658399e-001	6.884211e-001	9.449312e-001	9.473765e-001	9.602707e-001	7.275966e-001	7.315233e-001	7.358352e-001	7.402207e-001	7.446518e-001	8.352774e-001	8.532142e-001	9.613848e-001	9.587957e-001	9.568088e-001	9.247690e-001	9.291476e-001	8.747874e-001	9.001676e-001	7.737014e-001	7.790505e-001	7.847949e-001	7.102913e-001	7.057494e-001	7.061116e-001	7.066119e-001	1.027897e+000	1.034528e+000	1.041220e+000	9.537386e-001	9.573384e-001	9.606386e-001	8.366321e-001	8.408979e-001	1.297478e+000	9.036492e-001	1.136468e+000	1.088102e+000	9.374483e-001	1.269506e+000	1.157883e+000	1.036918e+000	1.049200e+000	1.041189e+000	1.120333e+000	7.000474e-001	1.279264e+000	9.867444e-001	1.211822e+000	1.039918e+000	1.128828e+000	1.185314e+000	9.454129e-001	1.146727e+000	1.180935e+000	1.189918e+000	9.653829e-001	8.615743e-001	1.095901e+000	8.975642e-001	9.146255e-001	9.115492e-001	8.580319e-001	1.100230e+000	8.582713e-001	1.034388e+000	1.033129e+000	9.654021e-001	7.613462e-001	7.236928e-001	1.123870e+000	8.154015e-001	9.725592e-001	1.152419e+000	1.110995e+000	1.142806e+000	1.101948e+000	1.124119e+000	9.691426e-001	1.238795e+000	9.702683e-001	9.707885e-001	1.153989e+000	1.129664e+000	1.183603e+000	9.946560e-001	6.912955e-001	7.155243e-001	1.229645e+000	1.023443e+000	9.458348e-001	1.036877e+000	7.137377e-001	7.179267e-001	7.204724e-001	9.653371e-001	9.674927e-001	1.074929e+000	1.062773e+000	1.105039e+000	1.262824e+000	1.303307e+000	1.067734e+000	1.095604e+000	1.118403e+000	9.640190e-001	9.641933e-001	9.671216e-001	9.798219e-001	9.892367e-001	9.411093e-001	9.270347e-001	1.000019e+000	1.011994e+000	1.024488e+000	1.080132e+000	1.088423e+000	9.688104e-001	9.676643e-001	1.136010e+000	9.161644e-001	9.208469e-001	9.023190e-001	9.070014e-001	1.060515e+000	1.070737e+000	8.726705e-001	8.663183e-001	9.417817e-001	1.107640e+000	1.113067e+000	9.707407e-001	9.701112e-001	8.939709e-001	8.857179e-001	8.789949e-001	9.455433e-001	9.495762e-001	1.017914e+000	9.958326e-001	9.751470e-001	9.568761e-001	8.779624e-001	8.829009e-001	8.875448e-001	8.924126e-001	8.575254e-001	8.538365e-001	8.503700e-001	8.473993e-001	8.450171e-001	8.723583e-001	8.654821e-001	8.437157e-001	7.064918e-001	1.061696e+000	1.049453e+000	7.091439e-001	7.100438e-001	7.098994e-001	7.096073e-001	7.095387e-001	8.271249e-001	8.410071e-001	7.269869e-001	7.309284e-001	7.657564e-001	7.705226e-001	7.755748e-001	7.803001e-001	1.043604e+000	1.043508e+000	1.041352e+000	1.030624e+000	1.022950e+000	1.014386e+000	1.004186e+000	9.868084e-001	9.780458e-001	9.703739e-001	9.600260e-001	9.571760e-001	9.536908e-001	9.520432e-001	9.496154e-001	9.483735e-001	9.465023e-001	6.985154e-001	7.327704e-001	9.459165e-001	9.471217e-001	9.562170e-001	9.715675e-001	7.346993e-001	7.389019e-001	7.428417e-001	7.473387e-001	7.517928e-001	7.565538e-001	8.566471e-001	8.755393e-001	9.644643e-001	9.629986e-001	9.627908e-001	9.254187e-001	9.290201e-001	9.335321e-001	8.983156e-001	9.241693e-001	9.532142e-001	7.850905e-001	7.910052e-001	7.983704e-001	8.062970e-001	7.097003e-001	7.103454e-001	7.111745e-001	7.121610e-001	1.041687e+000	1.035065e+000	1.038449e+000	9.530782e-001	9.566717e-001	9.598063e-001	9.627965e-001	8.438850e-001	8.463130e-001	8.511534e-001	1.148010e+000	1.131505e+000	1.095659e+000	1.175648e+000	1.174012e+000	9.713961e-001	9.148268e-001	1.198462e+000	1.083340e+000	1.243150e+000	1.071278e+000	8.713559e-001	7.759342e-001	1.036650e+000	1.141939e+000	1.244182e+000	1.297156e+000	1.298894e+000	1.287819e+000	1.259043e+000	1.138293e+000	7.216096e-001	1.101607e+000	1.123793e+000	1.055236e+000	9.692030e-001	9.042366e-001	1.120830e+000	1.041144e+000	1.039200e+000	7.624682e-001	7.017458e-001	9.450577e-001	9.648751e-001	7.028184e-001	9.393990e-001	7.183374e-001	1.112825e+000	9.261241e-001	1.166426e+000	1.093921e+000	1.298495e+000	1.183410e+000	1.173074e+000	1.044975e+000	1.048344e+000	1.275167e+000	1.003659e+000	1.221805e+000	1.045426e+000	1.174928e+000	1.175109e+000	1.179024e+000	1.122378e+000	8.736320e-001	8.675359e-001	1.103714e+000	9.191929e-001	1.040933e+000	1.118118e+000	9.695205e-001	1.211156e+000	7.232457e-001	7.274971e-001	7.297222e-001	9.658550e-001	1.070686e+000	1.106291e+000	1.283477e+000	1.097399e+000	9.738792e-001	9.772389e-001	9.852764e-001	9.922138e-001	9.385946e-001	9.532694e-001	1.002810e+000	1.012172e+000	1.023661e+000	1.035320e+000	1.081936e+000	1.089163e+000	9.706295e-001	1.129422e+000	9.166117e-001	9.214303e-001	9.077825e-001	9.125782e-001	1.065599e+000	1.073886e+000	8.817095e-001	8.742020e-001	1.107255e+000	1.112704e+000	9.715996e-001	9.044956e-001	8.948732e-001	8.902240e-001	9.472892e-001	1.026715e+000	1.005617e+000	9.857549e-001	9.690767e-001	8.802749e-001	8.849675e-001	8.902096e-001	8.940426e-001	8.992370e-001	8.654479e-001	8.628932e-001	8.576596e-001	8.560930e-001	8.524648e-001	1.072454e+000	1.062017e+000	1.052704e+000	7.104138e-001	7.128391e-001	7.137607e-001	7.141138e-001	7.134646e-001	8.459072e-001	8.613130e-001	7.349060e-001	7.376395e-001	7.789797e-001	7.862906e-001	7.924587e-001	1.040706e+000	1.039672e+000	1.036034e+000	1.031958e+000	1.025459e+000	1.018944e+000	1.010340e+000	9.978726e-001	9.868685e-001	9.750996e-001	9.577121e-001	9.527413e-001	9.482866e-001	9.514452e-001	9.679255e-001	7.433430e-001	7.460963e-001	7.518653e-001	7.545003e-001	7.606051e-001	7.653115e-001	7.705535e-001	8.785832e-001	8.974858e-001	9.687260e-001	9.680009e-001	9.707403e-001	9.264361e-001	9.317559e-001	9.199269e-001	9.459890e-001	9.734377e-001	7.981872e-001	8.047236e-001	8.131386e-001	8.237001e-001	8.341565e-001	7.142159e-001	7.141125e-001	7.159373e-001	7.174307e-001	1.039244e+000	1.040126e+000	9.544404e-001	9.606992e-001	8.529307e-001	8.522548e-001	8.563953e-001	8.603006e-001	1.164391e+000	1.159138e+000	1.185757e+000	1.262915e+000	1.182565e+000	1.101373e+000	1.106299e+000	1.194737e+000	1.055308e+000	1.141074e+000	1.112453e+000	1.264305e+000	1.074322e+000	1.164203e+000	7.254331e-001	1.174893e+000	1.076103e+000	1.164812e+000	1.141810e+000	1.095748e+000	9.378688e-001	1.097890e+000	8.782283e-001	1.060469e+000	1.046931e+000	9.588068e-001	9.258404e-001	8.771624e-001	1.239395e+000	9.115173e-001	9.513539e-001	9.386024e-001	7.933940e-001	1.079969e+000	1.040091e+000	1.223210e+000	1.046430e+000	1.089845e+000	1.170198e+000	1.088960e+000	1.296591e+000	1.253677e+000	1.117949e+000	9.727087e-001	7.045535e-001	7.113922e-001	1.114055e+000	1.173818e+000	1.134460e+000	1.283037e+000	1.177172e+000	1.054305e+000	1.224385e+000	1.206005e+000	8.614100e-001	1.096813e+000	1.049580e+000	1.045412e+000	7.351665e-001	7.315841e-001	7.394097e-001	9.713281e-001	1.106329e+000	1.136347e+000	1.120183e+000	9.860404e-001	1.000005e+000	9.645322e-001	1.017766e+000	1.034144e+000	1.083418e+000	1.123612e+000	9.192637e-001	1.069447e+000	1.076434e+000	8.870779e-001	1.106862e+000	9.729287e-001	9.727934e-001	9.106989e-001	8.996359e-001	9.452037e-001	1.034383e+000	1.013498e+000	9.946438e-001	9.824815e-001	8.895222e-001	8.984439e-001	9.058073e-001	8.684881e-001	8.625337e-001	1.071109e+000	1.062784e+000	7.169451e-001	7.181669e-001	8.813573e-001	7.483005e-001	8.049556e-001	9.845811e-001	1.036841e+000	1.029300e+000	1.018051e+000	1.006149e+000	9.953127e-001	9.736884e-001	9.648001e-001	9.584624e-001	9.531143e-001	9.472600e-001	9.472259e-001	9.619234e-001	9.589296e-001	7.574952e-001	7.664404e-001	7.751918e-001	7.785547e-001	7.861487e-001	9.002183e-001	9.192591e-001	9.731486e-001	9.744132e-001	9.794609e-001	9.265641e-001	9.318892e-001	9.402162e-001	9.648522e-001	9.910361e-001	1.017700e+000	8.128695e-001	8.199116e-001	8.288226e-001	8.407069e-001	8.550009e-001	8.634080e-001	7.192717e-001	7.223570e-001	1.042343e+000	1.041479e+000	9.524544e-001	9.641955e-001	9.684719e-001	8.613611e-001	8.670741e-001	1.120451e+000	1.165671e+000	1.160376e+000	1.141348e+000	1.013007e+000	1.108144e+000	1.171200e+000	1.136347e+000	1.191511e+000	1.136164e+000	1.147268e+000	1.128542e+000	1.105535e+000	1.204331e+000	1.244910e+000	1.070184e+000	9.745260e-001	7.311610e-001	1.129187e+000	1.030266e+000	1.096182e+000	8.921898e-001	1.079989e+000	1.174054e+000	9.125881e-001	1.064990e+000	9.626815e-001	9.436662e-001	1.095975e+000	1.101403e+000	1.076775e+000	1.059812e+000	1.170047e+000	1.092904e+000	1.100378e+000	1.057224e+000	7.452568e-001	9.348648e-001	9.708542e-001	9.744142e-001	1.154524e+000	1.159705e+000	1.279441e+000	1.090366e+000	1.063223e+000	1.177903e+000	1.106770e+000	1.180358e+000	1.155070e+000	9.372843e-001	1.233602e+000	9.647181e-001	9.490888e-001	1.085197e+000	1.243006e+000	1.084620e+000	1.112116e+000	9.732037e-001	1.263171e+000	1.177202e+000	9.912292e-001	1.221090e+000	1.207238e+000	7.