# vtk DataFile Version 3.0
vtk output
ASCII
DATASET UNSTRUCTURED_GRID
POINTS 5233 float
9.997500e-001	-3.633118e-005	0.0	9.990000e-001	-1.453935e-004	0.0	9.977600e-001	-3.266472e-004	0.0	9.960200e-001	-5.853205e-004	0.0	9.937800e-001	-9.306584e-004	0.0	9.910500e-001	-1.377502e-003	0.0	9.878400e-001	-1.946802e-003	0.0	9.841300e-001	-2.667217e-003	0.0	9.799500e-001	-3.552828e-003	0.0	9.752800e-001	-4.614541e-003	0.0	9.701500e-001	-5.834259e-003	0.0	9.645400e-001	-7.188497e-003	0.0	9.584700e-001	-8.634128e-003	0.0	9.519400e-001	-1.013171e-002	0.0	9.449600e-001	-1.164552e-002	0.0	9.375400e-001	-1.314836e-002	0.0	9.296900e-001	-1.461975e-002	0.0	9.214000e-001	-1.604581e-002	0.0	9.127000e-001	-1.740667e-002	0.0	9.035800e-001	-1.869070e-002	0.0	8.940600e-001	-1.988562e-002	0.0	8.841500e-001	-2.098762e-002	0.0	8.738500e-001	-2.200210e-002	0.0	8.631800e-001	-2.294043e-002	0.0	8.521600e-001	-2.382033e-002	0.0	8.407700e-001	-2.466556e-002	0.0	8.290500e-001	-2.549512e-002	0.0	8.170100e-001	-2.632762e-002	0.0	8.046400e-001	-2.717856e-002	0.0	7.919700e-001	-2.805557e-002	0.0	7.790100e-001	-2.896263e-002	0.0	7.657800e-001	-2.989885e-002	0.0	7.522800e-001	-3.086168e-002	0.0	7.385200e-001	-3.184615e-002	0.0	7.245300e-001	-3.284529e-002	0.0	7.103200e-001	-3.385403e-002	0.0	6.958900e-001	-3.486917e-002	0.0	6.812700e-001	-3.588694e-002	0.0	6.664700e-001	-3.690659e-002	0.0	6.515000e-001	-3.792874e-002	0.0	6.363800e-001	-3.895433e-002	0.0	6.211300e-001	-3.998477e-002	0.0	6.057600e-001	-4.102207e-002	0.0	5.902800e-001	-4.206766e-002	0.0	5.747100e-001	-4.312130e-002	0.0	5.590600e-001	-4.418217e-002	0.0	5.433600e-001	-4.524662e-002	0.0	5.276100e-001	-4.631161e-002	0.0	5.118400e-001	-4.737073e-002	0.0	4.960500e-001	-4.841838e-002	0.0	4.802700e-001	-4.944607e-002	0.0	4.645100e-001	-5.044595e-002	0.0	4.487800e-001	-5.140979e-002	0.0	4.331100e-001	-5.232800e-002	0.0	4.175000e-001	-5.319292e-002	0.0	4.019700e-001	-5.399596e-002	0.0	3.865400e-001	-5.472902e-002	0.0	3.712300e-001	-5.538462e-002	0.0	3.560400e-001	-5.595672e-002	0.0	3.409900e-001	-5.643896e-002	0.0	3.261100e-001	-5.682549e-002	0.0	3.114000e-001	-5.711198e-002	0.0	2.968700e-001	-5.729420e-002	0.0	2.825500e-001	-5.736829e-002	0.0	2.684500e-001	-5.733131e-002	0.0	2.545700e-001	-5.718054e-002	0.0	2.409400e-001	-5.691397e-002	0.0	2.275700e-001	-5.653001e-002	0.0	2.144700e-001	-5.602741e-002	0.0	2.016600e-001	-5.540580e-002	0.0	1.891400e-001	-5.466435e-002	0.0	1.769300e-001	-5.380367e-002	0.0	1.650400e-001	-5.282439e-002	0.0	1.534900e-001	-5.172860e-002	0.0	1.422900e-001	-5.051826e-002	0.0	1.314400e-001	-4.919463e-002	0.0	1.209500e-001	-4.776039e-002	0.0	1.108500e-001	-4.622203e-002	0.0	1.011300e-001	-4.458092e-002	0.0	9.181000e-002	-4.284365e-002	0.0	8.290000e-002	-4.101611e-002	0.0	7.440000e-002	-3.910267e-002	0.0	6.633000e-002	-3.711282e-002	0.0	5.869000e-002	-3.505217e-002	0.0	5.149000e-002	-3.292936e-002	0.0	4.474000e-002	-3.075395e-002	0.0	3.844000e-002	-2.853274e-002	0.0	3.260000e-002	-2.627625e-002	0.0	2.723000e-002	-2.399592e-002	0.0	2.232000e-002	-2.169435e-002	0.0	1.790000e-002	-1.939297e-002	0.0	1.395000e-002	-1.708811e-002	0.0	1.049000e-002	-1.479650e-002	0.0	7.520000e-003	-1.252301e-002	0.0	5.040000e-003	-1.026920e-002	0.0	3.050000e-003	-8.030855e-003	0.0	1.560000e-003	-5.809827e-003	0.0	5.600000e-004	-3.562794e-003	0.0	6.000000e-005	-1.229410e-003	0.0	0.000000e+000	0.000000e+000	0.0	6.000000e-005	1.536543e-003	0.0	5.600000e-004	4.886877e-003	0.0	1.560000e-003	8.267366e-003	0.0	3.050000e-003	1.159257e-002	0.0	5.040000e-003	1.485174e-002	0.0	7.520000e-003	1.800462e-002	0.0	1.049000e-002	2.103992e-002	0.0	1.395000e-002	2.394939e-002	0.0	1.790000e-002	2.672738e-002	0.0	2.232000e-002	2.935935e-002	0.0	2.723000e-002	3.185752e-002	0.0	3.260000e-002	3.420825e-002	0.0	3.844000e-002	3.641975e-002	0.0	4.474000e-002	3.849171e-002	0.0	5.149000e-002	4.042547e-002	0.0	5.869000e-002	4.222583e-002	0.0	6.633000e-002	4.389511e-002	0.0	7.440000e-002	4.543629e-002	0.0	8.290000e-002	4.685430e-002	0.0	9.181000e-002	4.815076e-002	0.0	1.011300e-001	4.933052e-002	0.0	1.108500e-001	5.039669e-002	0.0	1.209500e-001	5.135141e-002	0.0	1.314400e-001	5.219939e-002	0.0	1.422900e-001	5.294163e-002	0.0	1.534900e-001	5.358081e-002	0.0	1.650400e-001	5.411974e-002	0.0	1.769300e-001	5.456022e-002	0.0	1.891400e-001	5.490362e-002	0.0	2.016600e-001	5.515162e-002	0.0	2.144700e-001	5.530570e-002	0.0	2.275700e-001	5.536760e-002	0.0	2.409400e-001	5.533897e-002	0.0	2.545700e-001	5.522171e-002	0.0	2.684500e-001	5.501799e-002	0.0	2.825500e-001	5.473079e-002	0.0	2.968700e-001	5.436308e-002	0.0	3.114000e-001	5.391846e-002	0.0	3.261100e-001	5.340181e-002	0.0	3.409900e-001	5.281813e-002	0.0	3.560400e-001	5.217249e-002	0.0	3.712300e-001	5.147180e-002	0.0	3.865400e-001	5.072319e-002	0.0	4.019700e-001	4.993313e-002	0.0	4.175000e-001	4.910932e-002	0.0	4.331100e-001	4.825956e-002	0.0	4.487800e-001	4.739153e-002	0.0	4.645100e-001	4.651146e-002	0.0	4.802700e-001	4.562670e-002	0.0	4.960500e-001	4.474270e-002	0.0	5.118400e-001	4.386401e-002	0.0	5.276100e-001	4.299513e-002	0.0	5.433600e-001	4.213772e-002	0.0	5.590600e-001	4.129372e-002	0.0	5.747100e-001	4.046208e-002	0.0	5.902800e-001	3.964198e-002	0.0	6.057600e-001	3.883011e-002	0.0	6.211300e-001	3.802239e-002	0.0	6.363800e-001	3.721295e-002	0.0	6.515000e-001	3.639472e-002	0.0	6.664700e-001	3.556014e-002	0.0	6.812700e-001	3.470076e-002	0.0	6.958900e-001	3.380693e-002	0.0	7.103200e-001	3.286854e-002	0.0	7.245300e-001	3.187684e-002	0.0	7.385200e-001	3.082153e-002	0.0	7.522800e-001	2.969393e-002	0.0	7.657800e-001	2.848883e-002	0.0	7.790100e-001	2.720210e-002	0.0	7.919700e-001	2.583188e-002	0.0	8.046400e-001	2.438247e-002	0.0	8.170100e-001	2.286218e-002	0.0	8.290500e-001	2.128737e-002	0.0	8.407700e-001	1.967474e-002	0.0	8.521600e-001	1.804832e-002	0.0	8.631800e-001	1.644030e-002	0.0	8.738500e-001	1.487585e-002	0.0	8.841500e-001	1.338502e-002	0.0	8.940600e-001	1.199393e-002	0.0	9.035800e-001	1.071924e-002	0.0	9.127000e-001	9.570490e-003	0.0	9.214000e-001	8.549106e-003	0.0	9.296900e-001	7.644489e-003	0.0	9.375400e-001	6.844035e-003	0.0	9.449600e-001	6.127121e-003	0.0	9.519400e-001	5.474328e-003	0.0	9.584700e-001	4.867598e-003	0.0	9.645400e-001	4.292122e-003	0.0	9.701500e-001	3.736737e-003	0.0	9.752800e-001	3.197787e-003	0.0	9.799500e-001	2.673152e-003	0.0	9.841300e-001	2.171365e-003	0.0	9.878400e-001	1.698889e-003	0.0	9.910500e-001	1.270030e-003	0.0	9.937800e-001	8.921859e-004	0.0	9.960200e-001	5.747515e-004	0.0	9.977600e-001	3.246995e-004	0.0	9.990000e-001	1.452165e-004	0.0	9.997500e-001	3.632838e-005	0.0	1.000000e+000	0.000000e+000	0.0	1.984229e+001	2.506660e+000	0.0	1.937166e+001	4.973800e+000	0.0	1.859553e+001	7.362490e+000	0.0	1.752613e+001	9.635070e+000	0.0	1.618034e+001	1.175571e+001	0.0	1.457937e+001	1.369094e+001	0.0	1.274848e+001	1.541027e+001	0.0	1.071654e+001	1.688656e+001	0.0	8.515590e+000	1.809654e+001	0.0	6.180340e+000	1.902113e+001	0.0	3.747630e+000	1.964575e+001	0.0	1.255810e+000	1.996053e+001	0.0	-1.255810e+000	1.996053e+001	0.0	-3.747630e+000	1.964574e+001	0.0	-6.180340e+000	1.902113e+001	0.0	-8.515590e+000	1.809654e+001	0.0	-1.071654e+001	1.688656e+001	0.0	-1.274848e+001	1.541026e+001	0.0	-1.457937e+001	1.369094e+001	0.0	-1.618034e+001	1.175570e+001	0.0	-1.752613e+001	9.635070e+000	0.0	-1.859553e+001	7.362490e+000	0.0	-1.937166e+001	4.973800e+000	0.0	-1.984229e+001	2.506660e+000	0.0	-2.000000e+001	0.000000e+000	0.0	-1.984229e+001	-2.506670e+000	0.0	-1.937166e+001	-4.973800e+000	0.0	-1.859553e+001	-7.362490e+000	0.0	-1.752613e+001	-9.635080e+000	0.0	-1.618034e+001	-1.175571e+001	0.0	-1.457937e+001	-1.369094e+001	0.0	-1.274848e+001	-1.541027e+001	0.0	-1.071653e+001	-1.688656e+001	0.0	-8.515580e+000	-1.809654e+001	0.0	-6.180340e+000	-1.902113e+001	0.0	-3.747620e+000	-1.964575e+001	0.0	-1.255810e+000	-1.996053e+001	0.0	1.255810e+000	-1.996053e+001	0.0	3.747630e+000	-1.964574e+001	0.0	6.180340e+000	-1.902113e+001	0.0	8.515590e+000	-1.809654e+001	0.0	1.071654e+001	-1.688656e+001	0.0	1.274848e+001	-1.541026e+001	0.0	1.457937e+001	-1.369094e+001	0.0	1.618034e+001	-1.175570e+001	0.0	1.752614e+001	-9.635070e+000	0.0	1.859553e+001	-7.362490e+000	0.0	1.937166e+001	-4.973790e+000	0.0	1.984229e+001	-2.506660e+000	0.0	2.000000e+001	0.000000e+000	0.0	6.075228e-002	-4.309322e-002	0.0	6.600272e-001	-5.125865e-002	0.0	4.260487e-001	6.314591e-002	0.0	6.896502e-001	4.758489e-002	0.0	3.793738e-001	-6.910157e-002	0.0	9.994646e-001	-7.287571e-004	0.0	9.985490e-001	-1.330408e-003	0.0	7.734899e-001	-4.167641e-002	0.0	6.896387e-001	-4.889792e-002	0.0	-1.611869e-003	7.538068e-003	0.0	7.464764e-001	-4.408569e-002	0.0	5.834397e-001	5.444613e-002	0.0	9.927975e-001	-3.694244e-003	0.0	9.899099e-001	-4.661717e-003	0.0	5.989723e-001	5.352537e-002	0.0	7.184952e-001	-4.649867e-002	0.0	-1.605154e-003	1.040315e-003	0.0	9.865372e-001	-5.761327e-003	0.0	9.826876e-001	-6.996277e-003	0.0	-1.387064e-003	-5.591895e-003	0.0	6.449776e-001	-5.242466e-002	0.0	8.241812e-001	-3.695813e-002	0.0	7.994185e-001	-3.931293e-002	0.0	3.490228e-001	6.639989e-002	0.0	8.476452e-001	-3.456820e-002	0.0	2.477650e-001	6.787198e-002	0.0	8.697462e-001	-3.201936e-002	0.0	9.677273e-003	2.544215e-002	0.0	8.903682e-001	-2.919446e-002	0.0	7.701672e-002	-4.782748e-002	0.0	9.094219e-001	-2.603041e-002	0.0	-1.968803e-003	-2.723450e-003	0.0	9.424463e-001	-1.887739e-002	0.0	9.268103e-001	-2.255505e-002	0.0	1.802669e-002	-2.474222e-002	0.0	4.259853e-001	-6.711783e-002	0.0	8.588756e-001	-3.331947e-002	0.0	9.562833e-001	-1.515065e-002	0.0	9.783545e-001	-8.394583e-003	0.0	9.682678e-001	-1.157137e-002	0.0	1.582832e-001	-6.278315e-002	0.0	9.000992e-001	-2.765554e-002	0.0	7.601139e-001	-4.287774e-002	0.0	9.971272e-001	-2.080650e-003	0.0	5.990315e-001	-5.587170e-002	0.0	4.416799e-001	-6.630218e-002	0.0	5.364411e-001	-6.034140e-002	0.0	4.732271e-001	-6.448697e-002	0.0	5.048508e-001	-6.247988e-002	0.0	4.890288e-001	-6.350301e-002	0.0	1.249431e-001	-5.801106e-002	0.0	2.790797e-002	-3.018393e-002	0.0	3.948201e-001	-6.852557e-002	0.0	4.624980e-002	-3.808
[...]
POINT_DATA 5233

SCALARS Density float 1
LOOKUP_TABLE default
1.190523e+000	1.170539e+000	1.159345e+000	1.151759e+000	1.146226e+000	1.141511e+000	1.135740e+000	1.127753e+000	1.116521e+000	1.101769e+000	1.083833e+000	1.063705e+000	1.042654e+000	1.021954e+000	1.002564e+000	9.848624e-001	9.688971e-001	9.548104e-001	9.431887e-001	9.348818e-001	9.306212e-001	9.304513e-001	9.337168e-001	9.392471e-001	9.458508e-001	9.524456e-001	9.582647e-001	9.628514e-001	9.660466e-001	9.678921e-001	9.685481e-001	9.682556e-001	9.672873e-001	9.658888e-001	9.643110e-001	9.627143e-001	9.612257e-001	9.598818e-001	9.586665e-001	9.575182e-001	9.563329e-001	9.550053e-001	9.534258e-001	9.515046e-001	9.491655e-001	9.463492e-001	9.430211e-001	9.393059e-001	9.354582e-001	9.314817e-001	9.266947e-001	9.208426e-001	9.172294e-001	9.218325e-001	9.316815e-001	9.213140e-001	8.533969e-001	7.599624e-001	7.201003e-001	7.236079e-001	7.326961e-001	7.382280e-001	7.414965e-001	7.451343e-001	7.497355e-001	7.549428e-001	7.605822e-001	7.665642e-001	7.728450e-001	7.794460e-001	7.865428e-001	7.944168e-001	8.032261e-001	8.128426e-001	8.230024e-001	8.335507e-001	8.446079e-001	8.563991e-001	8.689222e-001	8.821470e-001	8.961138e-001	9.107900e-001	9.262229e-001	9.424094e-001	9.593949e-001	9.772637e-001	9.960422e-001	1.015840e+000	1.036824e+000	1.059038e+000	1.082767e+000	1.108398e+000	1.136174e+000	1.166894e+000	1.201218e+000	1.239381e+000	1.279396e+000	1.326173e+000	1.347019e+000	1.349320e+000	1.352653e+000	1.335740e+000	1.289984e+000	1.237424e+000	1.175223e+000	1.111214e+000	1.049119e+000	9.913644e-001	9.392473e-001	8.935704e-001	8.542911e-001	8.206023e-001	7.918474e-001	7.672314e-001	7.462919e-001	7.287513e-001	7.140230e-001	7.014426e-001	6.905412e-001	6.808879e-001	6.722321e-001	6.646955e-001	6.585564e-001	6.536437e-001	6.494200e-001	6.453035e-001	6.414037e-001	6.378544e-001	6.345608e-001	6.312306e-001	6.278845e-001	6.247363e-001	6.220816e-001	6.199871e-001	6.184374e-001	6.173059e-001	6.165023e-001	6.159809e-001	6.156764e-001	6.155649e-001	6.156849e-001	6.160108e-001	6.167841e-001	6.176220e-001	6.194880e-001	6.226958e-001	6.251422e-001	6.247104e-001	6.410374e-001	7.636756e-001	9.502191e-001	1.001805e+000	9.925107e-001	9.835252e-001	9.827967e-001	9.813607e-001	9.784961e-001	9.755188e-001	9.727408e-001	9.698473e-001	9.669547e-001	9.641130e-001	9.615385e-001	9.593287e-001	9.577413e-001	9.569570e-001	9.572591e-001	9.588500e-001	9.619490e-001	9.666936e-001	9.731068e-001	9.810670e-001	9.903647e-001	1.000644e+000	1.011471e+000	1.022334e+000	1.032739e+000	1.042254e+000	1.050473e+000	1.057138e+000	1.062102e+000	1.065404e+000	1.067205e+000	1.067834e+000	1.067688e+000	1.067250e+000	1.067031e+000	1.067531e+000	1.069233e+000	1.072512e+000	1.077607e+000	1.084524e+000	1.093071e+000	1.103036e+000	1.113988e+000	1.126267e+000	1.139845e+000	1.155921e+000	1.174915e+000	1.167358e+000	9.991025e-001	9.997641e-001	9.998417e-001	9.997518e-001	9.996959e-001	9.996240e-001	9.995359e-001	9.994230e-001	9.992983e-001	9.992117e-001	9.991667e-001	9.992213e-001	9.993539e-001	9.995983e-001	9.998023e-001	9.999662e-001	1.000058e+000	1.000114e+000	1.000148e+000	1.000163e+000	1.000171e+000	1.000174e+000	1.000177e+000	1.000182e+000	1.000186e+000	1.000193e+000	1.000207e+000	1.000224e+000	1.000249e+000	1.000285e+000	1.000326e+000	1.000391e+000	1.000452e+000	1.000554e+000	1.000643e+000	1.000745e+000	1.000844e+000	1.000871e+000	1.000869e+000	1.000796e+000	1.000721e+000	1.000615e+000	1.000515e+000	1.000417e+000	1.000329e+000	1.000218e+000	1.000128e+000	1.000154e+000	9.995203e-001	9.986612e-001	9.484840e-001	9.589658e-001	6.213444e-001	9.646345e-001	7.991559e-001	1.172321e+000	1.162668e+000	9.687814e-001	9.615097e-001	1.314519e+000	9.672053e-001	9.823137e-001	1.139425e+000	1.133274e+000	9.799548e-001	9.643791e-001	1.347963e+000	1.125995e+000	1.116674e+000	1.313007e+000	9.577225e-001	9.619082e-001	9.674594e-001	6.185785e-001	9.523207e-001	6.268433e-001	9.420489e-001	1.062719e+000	9.381727e-001	9.166866e-001	9.475707e-001	1.337882e+000	1.000352e+000	9.699650e-001	1.090707e+000	9.314207e-001	9.468945e-001	1.036157e+000	1.104768e+000	1.073371e+000	8.180592e-001	9.410048e-001	9.682440e-001	1.152643e+000	9.530429e-001	9.200510e-001	9.418771e-001	9.250930e-001	9.346305e-001	9.305655e-001	8.502956e-001	1.043890e+000	9.042086e-001	9.835713e-001	9.404022e-001	7.422364e-001	7.249469e-001	1.022625e+000	7.495116e-001	9.843838e-001	8.283780e-001	7.918799e-001	9.019469e-001	8.746087e-001	9.483506e-001	8.084210e-001	9.548498e-001	9.387863e-001	1.066506e+000	1.145559e+000	1.175646e+000	9.609336e-001	9.574677e-001	1.017715e+000	1.090202e+000	1.276043e+000	9.575021e-001	7.652607e-001	9.453301e-001	9.658485e-001	9.685845e-001	8.620687e-001	7.778956e-001	9.509037e-001	9.602103e-001	9.655909e-001	1.208947e+000	1.116730e+000	7.298209e-001	7.997063e-001	1.202154e+000	7.714186e-001	8.879268e-001	7.458841e-001	7.594691e-001	9.195819e-001	9.629037e-001	1.344337e+000	1.280677e+000	9.982550e-001	1.345348e+000	8.775988e-001	7.649934e-001	8.132624e-001	6.746446e-001	6.195953e-001	1.132309e+000	1.004627e+000	6.254871e-001	1.072904e+000	1.068091e+000	1.044222e+000	6.582949e-001	6.245103e-001	6.184815e-001	1.063399e+000	1.056521e+000	7.157614e-001	1.077335e+000	1.067122e+000	1.066053e+000	6.925808e-001	7.459931e-001	6.214749e-001	6.245934e-001	6.481457e-001	6.196145e-001	6.243916e-001	6.187402e-001	6.572281e-001	6.678782e-001	9.745252e-001	6.403267e-001	6.329385e-001	9.694215e-001	9.829007e-001	9.606241e-001	9.612259e-001	9.739156e-001	9.644489e-001	1.007677e+000	9.889411e-001	1.051056e+000	1.027173e+000	1.066583e+000	1.060606e+000	1.069904e+000	1.017542e+000	1.036177e+000	9.808037e-001	9.980073e-001	9.618837e-001	9.684463e-001	9.626627e-001	9.604590e-001	9.719618e-001	9.669078e-001	9.848545e-001	9.770833e-001	6.365830e-001	6.296678e-001	6.525210e-001	6.441742e-001	7.872644e-001	6.623233e-001	1.009823e+000	8.432942e-001	7.846816e-001	1.173993e+000	1.055019e+000	9.652579e-001	7.343581e-001	9.382473e-001	1.228430e+000	9.166847e-001	1.118027e+000	7.035139e-001	7.297522e-001	6.228222e-001	6.829135e-001	1.083293e+000	1.090670e+000	6.204262e-001	1.099404e+000	1.109200e+000	6.190255e-001	6.183304e-001	1.065114e+000	1.187002e+000	1.146492e+000	1.160182e+000	9.563738e-001	1.002558e+000	1.120160e+000	8.814763e-001	1.244757e+000	1.145000e+000	9.321865e-001	8.391258e-001	7.541247e-001	7.480960e-001	1.290438e+000	1.322717e+000	7.597257e-001	9.632259e-001	9.619063e-001	1.173757e+000	9.834216e-001	9.618668e-001	9.691034e-001	1.124042e+000	7.458363e-001	9.535864e-001	9.615447e-001	9.083134e-001	1.294422e+000	7.910755e-001	1.118806e+000	1.047772e+000	8.347220e-001	9.646120e-001	9.592295e-001	9.212416e-001	9.229695e-001	8.631125e-001	9.485042e-001	9.685088e-001	1.115013e+000	9.752627e-001	9.694742e-001	1.004882e+000	6.963396e-001	9.675645e-001	6.613787e-001	1.030825e+000	1.095746e+000	6.230547e-001	9.811483e-001	1.066427e+000	1.038499e+000	1.104068e+000	1.067941e+000	1.081971e+000	6.361318e-001	6.241228e-001	6.394958e-001	7.068544e-001	9.605601e-001	7.985198e-001	1.066388e+000	6.729245e-001	8.084924e-001	1.072886e+000	1.113467e+000	1.045264e+000	8.243944e-001	1.198379e+000	1.135351e+000	1.123789e+000	1.163754e+000	1.254903e+000	1.203596e+000	1.336630e+000	1.340898e+000	1.093798e+000	1.205049e+000	9.544395e-001	1.152427e+000	1.137698e+000	6.222123e-001	9.443882e-001	1.115698e+000	9.471372e-001	9.812182e-001	1.131188e+000	1.321236e+000	9.249252e-001	6.218206e-001	9.577017e-001	6.285797e-001	9.498094e-001	9.464703e-001	9.383271e-001	9.536988e-001	9.726835e-001	1.014917e+000	1.048398e+000	1.031164e+000	1.064143e+000	1.105537e+000	8.569259e-001	9.683210e-001	9.690047e-001	1.144563e+000	9.246968e-001	9.297603e-001	9.338929e-001	1.070502e+000	9.297457e-001	9.357322e-001	7.353889e-001	1.007865e+000	9.853770e-001	9.995454e-001	8.456461e-001	8.943525e-001	9.475105e-001	9.546022e-001	1.079562e+000	1.093489e+000	9.659812e-001	9.672839e-001	8.811785e-001	8.687210e-001	9.502478e-001	9.525824e-001	9.892070e-001	9.714237e-001	1.145314e+000	7.317269e-001	7.674545e-001	8.149879e-001	8.064439e-001	7.840223e-001	7.773469e-001	7.551945e-001	7.511321e-001	7.710370e-001	1.340003e+000	1.235072e+000	8.344851e-001	1.088282e+000	1.001761e+000	7.620614e-001	6.335516e-001	6.161621e-001	1.076838e+000	1.070002e+000	1.059165e+000	6.269419e-001	6.250206e-001	6.214989e-001	1.055614e+000	1.065116e+000	7.655480e-001	7.855826e-001	6.332367e-001	6.306771e-001	6.667586e-001	6.800315e-001	6.875791e-001	9.754661e-001	9.641533e-001	9.639799e-001	9.707982e-001	9.963582e-001	1.050978e+000	1.022460e+000	1.013689e+000	9.884785e-001	9.814318e-001	9.674096e-001	9.652044e-001	9.646562e-001	9.658415e-001	9.716891e-001	9.738239e-001	9.835341e-001	9.860324e-001	9.760763e-001	9.782976e-001	6.431811e-001	6.473917e-001	6.518467e-001	6.565870e-001	1.019608e+000	8.640897e-001	8.975837e-001	9.670829e-001	9.647371e-001	9.374292e-001	9.409374e-001	1.211562e+000	9.346362e-001	7.190101e-001	7.327165e-001	6.253254e-001	6.267903e-001	6.218109e-001	6.222394e-001	1.063678e+000	1.061785e+000	9.563266e-001	9.578575e-001	1.027532e+000	1.266173e+000	7.651090e-001	1.301410e+000	9.051283e-001	7.658932e-001	9.695470e-001	9.438024e-001	9.763357e-001	1.099932e+000	1.092654e+000	1.069272e+000	1.197815e+000	1.108382e+000	1.147620e+000	1.164789e+000	1.143203e+000	1.186803e+000	1.096640e+000	1.320732e+000	9.155940e-001	9.874827e-001	1.122689e+000	9.831735e-001	1.162555e+000	1.198071e+000	9.649773e-001	1.252994e+000	9.663027e-001	1.120045e+000	9.545999e-001	1.171005e+000	7.493787e-001	9.565886e-001	9.636431e-001	1.129877e+000	1.145050e+000	1.080555e+000	9.990006e-001	1.064893e+000	9.720479e-001	1.116959e+000	8.915183e-001	6.374606e-001	6.289190e-001	6.776021e-001	7.857578e-001	1.157000e+000	1.275231e+000	1.266218e+000	1.029258e+000	1.299465e+000	1.057523e+000	9.300793e-001	1.334345e+000	8.416645e-001	9.250447e-001	1.074305e+000	1.113778e+000	1.003418e+000	9.777575e-001	9.705078e-001	1.086176e+000	1.066910e+000	1.040294e+000	1.033750e+000	6.306420e-001	6.348175e-001	6.470374e-001	7.226469e-001	9.609259e-001	9.622748e-001	8.056444e-001	1.071269e+000	6.842413e-001	1.075938e+000	1.125906e+000	1.156449e+000	1.236032e+000	1.225621e+000	1.317754e+000	1.052846e+000	1.176251e+000	1.167948e+000	1.071538e+000	1.115108e+000	9.825539e-001	9.245810e-001	6.250195e-001	9.623039e-001	9.593406e-001	9.541503e-001	9.557788e-001	9.611345e-001	9.452810e-001	9.600554e-001	9.669979e-001	1.028149e+000	1.042908e+000	1.106413e+000	9.694032e-001	9.697210e-001	1.136167e+000	9.292951e-001	9.335021e-001	9.366699e-001	9.316041e-001	1.032726e+000	1.000029e+000	1.013696e+000	8.643410e-001	8.527736e-001	9.469504e-001	9.497723e-001	1.084541e+000	1.096151e+000	9.675552e-001	9.686013e-001	9.017824e-001	8.884947e-001	8.760504e-001	9.522400e-001	9.544182e-001	1.013768e+000	9.954362e-001	9.778064e-001	7.402932e-001	7.508502e-001	8.172932e-001	8.316263e-001	8.224379e-001	8.137989e-001	7.979485e-001	7.907121e-001	7.612937e-001	7.563825e-001	7.838698e-001	8.559602e-001	6.566611e-001	6.166852e-001	1.072209e+000	6.261688e-001	6.263410e-001	6.271981e-001	6.253379e-001	1.054926e+000	8.066481e-001	8.301035e-001	6.402926e-001	6.436157e-001	6.922798e-001	7.019141e-001	7.118717e-001	9.678453e-001	1.050939e+000	1.046027e+000	1.026534e+000	1.018930e+000	1.011205e+000	9.958434e-001	9.889952e-001	9.828984e-001	9.737408e-001	9.707729e-001	9.688423e-001	9.676293e-001	9.681318e-001	9.690668e-001	9.739288e-001	9.828165e-001	9.902971e-001	9.756028e-001	9.776415e-001	9.797014e-001	6.509394e-001	6.551107e-001	6.601523e-001	6.655886e-001	6.715925e-001	8.845450e-001	9.166698e-001	9.687268e-001	9.671795e-001	9.650023e-001	9.370183e-001	9.404040e-001	9.520475e-001	9.894013e-001	7.355719e-001	7.505769e-001	7.672265e-001	6.326208e-001	6.257578e-001	6.265037e-001	6.275306e-001	1.062933e+000	1.060774e+000	1.058185e+000	9.563011e-001	9.579953e-001	9.594946e-001	7.774311e-001	7.714124e-001	1.281604e+000	9.232521e-001	1.118588e+000	1.083921e+000	9.463137e-001	1.299149e+000	1.149632e+000	9.908426e-001	1.002073e+000	1.056338e+000	1.103129e+000	7.774351e-001	1.257873e+000	1.073900e+000	1.189917e+000	1.068012e+000	1.110690e+000	1.244871e+000	9.745259e-001	1.217455e+000	1.168017e+000	1.178620e+000	9.701377e-001	8.502241e-001	1.098197e+000	9.257954e-001	9.376006e-001	9.263753e-001	7.735347e-001	1.089675e+000	9.855487e-001	1.065334e+000	1.062871e+000	9.806390e-001	6.983130e-001	6.493713e-001	1.114557e+000	8.271693e-001	9.615798e-001	1.134729e+000	1.096075e+000	1.134884e+000	1.077067e+000	1.119682e+000	9.652904e-001	1.214324e+000	9.667022e-001	9.678563e-001	1.142660e+000	1.121558e+000	1.166230e+000	1.002359e+000	9.698064e-001	6.398242e-001	1.275729e+000	1.111145e+000	9.734672e-001	1.036307e+000	6.374920e-001	6.428645e-001	6.457379e-001	9.625481e-001	9.640434e-001	1.078887e+000	1.147643e+000	1.183876e+000	1.238068e+000	1.298966e+000	1.076836e+000	1.065183e+000	1.106737e+000	9.817391e-001	9.643783e-001	9.625977e-001	9.615359e-001	9.633180e-001	9.678921e-001	9.524286e-001	9.670509e-001	9.730195e-001	9.811717e-001	1.039590e+000	1.052627e+000	9.703545e-001	9.705787e-001	1.128327e+000	9.290373e-001	9.332354e-001	9.359557e-001	9.294063e-001	1.014002e+000	1.026507e+000	8.727353e-001	8.606141e-001	9.492826e-001	1.087967e+000	1.097916e+000	9.689733e-001	9.699744e-001	9.095313e-001	8.966111e-001	8.846693e-001	9.518530e-001	9.541944e-001	1.037718e+000	1.019215e+000	1.001037e+000	9.839195e-001	7.559231e-001	7.568086e-001	7.913525e-001	8.680472e-001	8.406573e-001	8.314226e-001	8.226166e-001	8.141761e-001	8.063733e-001	7.628195e-001	7.686227e-001	7.989220e-001	6.321057e-001	1.074642e+000	1.071047e+000	6.152613e-001	6.288148e-001	6.301600e-001	6.301927e-001	6.305259e-001	8.510717e-001	8.772278e-001	6.527455e-001	6.569413e-001	7.068175e-001	7.170734e-001	7.287638e-001	7.409859e-001	1.051021e+000	1.046762e+000	1.041928e+000	1.030180e+000	1.023646e+000	1.016988e+000	1.009377e+000	9.966978e-001	9.902006e-001	9.844227e-001	9.763983e-001	9.744701e-001	9.720236e-001	9.717022e-001	9.708389e-001	9.716625e-001	9.719742e-001	1.000531e+000	9.913186e-001	9.763149e-001	9.776724e-001	9.794090e-001	9.808237e-001	6.607119e-001	6.654126e-001	6.699179e-001	6.759897e-001	6.823089e-001	6.899888e-001	9.044606e-001	9.339776e-001	9.694529e-001	9.679709e-001	9.662313e-001	9.369453e-001	9.398127e-001	9.431575e-001	9.670934e-001	1.001710e+000	1.036712e+000	7.539842e-001	7.692615e-001	7.871284e-001	8.063028e-001	6.308110e-001	6.320997e-001	6.334450e-001	6.351182e-001	1.054636e+000	1.060366e+000	1.057743e+000	9.561616e-001	9.580374e-001	9.595989e-001	9.612076e-001	7.920227e-001	7.853304e-001	7.792269e-001	1.139653e+000	1.114343e+000	1.071231e+000	1.161500e+000	1.161052e+000	9.686954e-001	9.314500e-001	1.182101e+000	1.081555e+000	1.224233e+000	1.078550e+000	8.608986e-001	7.237934e-001	1.109148e+000	1.201440e+000	1.273913e+000	1.314182e+000	1.314779e+000	1.306572e+000	1.242023e+000	1.129977e+000	6.482099e-001	1.081267e+000	1.114095e+000	1.015379e+000	9.714490e-001	9.316255e-001	1.104968e+000	1.051604e+000	1.060608e+000	1.009533e+000	9.485183e-001	9.765577e-001	9.810743e-001	6.849767e-001	9.468294e-001	6.437625e-001	1.098590e+000	9.455071e-001	1.150801e+000	1.086699e+000	1.307163e+000	1.172795e+000	1.163472e+000	1.003698e+000	1.060139e+000	1.261763e+000	1.076187e+000	1.203344e+000	1.066251e+000	1.226259e+000	1.162463e+000	1.167021e+000	1.119009e+000	7.749830e-001	7.820993e-001	1.092334e+000	9.871493e-001	1.063399e+000	1.106894e+000	9.662267e-001	1.252469e+000	6.502411e-001	6.553874e-001	6.576914e-001	9.634286e-001	1.140796e+000	1.171957e+000	1.276729e+000	1.099204e+000	9.679502e-001	9.669405e-001	9.687763e-001	9.694184e-001	9.599065e-001	9.753227e-001	9.743571e-001	9.781810e-001	9.866839e-001	9.956674e-001	1.049301e+000	1.060526e+000	9.712479e-001	1.120538e+000	9.289585e-001	9.319513e-001	9.348817e-001	9.305293e-001	1.026913e+000	1.037800e+000	8.809922e-001	8.683278e-001	1.090635e+000	1.099178e+000	9.704417e-001	9.176017e-001	9.042253e-001	8.952224e-001	9.524012e-001	1.042291e+000	1.024414e+000	1.006851e+000	9.910118e-001	7.725630e-001	7.677589e-001	7.860925e-001	8.312155e-001	8.931429e-001	8.493179e-001	8.419604e-001	8.307601e-001	8.241973e-001	8.142491e-001	1.076966e+000	1.072968e+000	1.069429e+000	6.263040e-001	6.242617e-001	6.311468e-001	6.343935e-001	6.355929e-001	8.717441e-001	8.974815e-001	6.634982e-001	6.661353e-001	7.310399e-001	7.464433e-001	7.606546e-001	1.047425e+000	1.043403e+000	1.038316e+000	1.033219e+000	1.027316e+000	1.021508e+000	1.014897e+000	1.005342e+000	9.973371e-001	9.885915e-001	9.763224e-001	9.743549e-001	9.746056e-001	9.790775e-001	9.802996e-001	6.726686e-001	6.755173e-001	6.830730e-001	6.865940e-001	6.961189e-001	7.038066e-001	7.134275e-001	9.240971e-001	9.510136e-001	9.708099e-001	9.693835e-001	9.688783e-001	9.359541e-001	9.408094e-001	9.804420e-001	1.012744e+000	1.044067e+000	7.748007e-001	7.901036e-001	8.079531e-001	8.289446e-001	8.498139e-001	6.369215e-001	6.371996e-001	6.399898e-001	6.422383e-001	1.057918e+000	1.054379e+000	9.568016e-001	9.603515e-001	8.084501e-001	7.994672e-001	7.944642e-001	7.865609e-001	1.155903e+000	1.141800e+000	1.173877e+000	1.283660e+000	1.171245e+000	1.084319e+000	1.094340e+000	1.231824e+000	1.067385e+000	1.132351e+000	1.100064e+000	1.257903e+000	1.080071e+000	1.154960e+000	6.534642e-001	1.161584e+000	1.134248e+000	1.208986e+000	1.135908e+000	1.075764e+000	9.443819e-001	1.088770e+000	7.875193e-001	1.027068e+000	1.011732e+000	9.591333e-001	9.393844e-001	8.646797e-001	1.226358e+000	9.334892e-001	9.686177e-001	9.543610e-001	7.565701e-001	1.078889e+000	1.049730e+000	1.251678e+000	1.106431e+000	1.066735e+000	1.155560e+000	1.083552e+000	1.311114e+000	1.242941e+000	1.107097e+000	9.704871e-001	8.040815e-001	6.373977e-001	1.100254e+000	1.161420e+000	1.117851e+000	1.284894e+000	1.166936e+000	1.063377e+000	1.210342e+000	1.192465e+000	9.980523e-001	1.098585e+000	1.064392e+000	1.060937e+000	1.000362e+000	6.612691e-001	6.701931e-001	9.683178e-001	1.161112e+000	1.186483e+000	1.117837e+000	9.730663e-001	9.777793e-001	9.825570e-001	9.872418e-001	1.000069e+000	1.057158e+000	1.113704e+000	9.321562e-001	1.037758e+000	1.047257e+000	8.836117e-001	1.092378e+000	9.718657e-001	9.726959e-001	9.202553e-001	9.033672e-001	9.501443e-001	1.046486e+000	1.028420e+000	1.011777e+000	9.999766e-001	7.876195e-001	8.339872e-001	9.066329e-001	8.456296e-001	8.280430e-001	1.074694e+000	1.070925e+000	6.306173e-001	6.412751e-001	9.158272e-001	6.802006e-001	7.802837e-001	9.963277e-001	1.042112e+000	1.032613e+000	1.022123e+000	1.012509e+000	1.004257e+000	9.883660e-001	9.820802e-001	9.781605e-001	9.764322e-001	9.767378e-001	9.782918e-001	9.780447e-001	9.791282e-001	6.917171e-001	7.051068e-001	7.197538e-001	7.264207e-001	7.410579e-001	9.423549e-001	9.673927e-001	9.729636e-001	9.723853e-001	9.725180e-001	9.337178e-001	9.385460e-001	9.929217e-001	1.021613e+000	1.050469e+000	1.078067e+000	7.971623e-001	8.124019e-001	8.295516e-001	8.502249e-001	8.744303e-001	8.902442e-001	6.447538e-001	6.491006e-001	1.058475e+000	1.055150e+000	9.551067e-001	9.625475e-001	9.655976e-001	8.124574e-001	7.984422e-001	1.105553e+000	1.156270e+000	1.151527e+000	1.124353e+000	1.025762e+000	1.095888e+000	1.158257e+000	1.127309e+000	1.181971e+000	1.132191e+000	1.138585e+000	1.119089e+000	1.151556e+000	1.231041e+000	1.239737e+000	1.072236e+000	9.722639e-001	6.614116e-001	1.113277e+000	1.001295e+000	1.097885e+000	9.219364e-001	1.128534e+000	1.165757e+000	9.214963e-001	1.037299e+000	9.615787e-001	9.481088e-001	1.079226e+000	1.086668e+000	1.081271e+000	1.066597e+000	1.155947e+000	1.085155e+000	1.090126e+000	1.065372e+000	6.789091e-001	9.861540e-001	9.678539e-001	9.891316e-001	1.137718e+000	1.143700e+000	1.290741e+000	1.071375e+000	1.068560e+000	1.166118e+000	1.093792e+000	1.213180e+000	1.148756e+000	9.421770e-001	1.225764e+000	9.785473e-001	9.618301e-001	1.080470e+000	1.262890e+000	1.063266e+000	1.100516e+000	9.703687e-001	1.263996e+000	1.166482e+000	1.005315e+000	1.211694e+000	1.197321e+000	9.