# vtk DataFile Version 3.0
vtk output
ASCII
DATASET UNSTRUCTURED_GRID
POINTS 5233 float
9.997500e-001	-3.633023e-005	0.0	9.990000e-001	-1.453332e-004	0.0	9.977600e-001	-3.259789e-004	0.0	9.960200e-001	-5.816541e-004	0.0	9.937800e-001	-9.170954e-004	0.0	9.910500e-001	-1.338751e-003	0.0	9.878400e-001	-1.854686e-003	0.0	9.841300e-001	-2.475709e-003	0.0	9.799500e-001	-3.196538e-003	0.0	9.752800e-001	-4.007322e-003	0.0	9.701500e-001	-4.875429e-003	0.0	9.645400e-001	-5.767165e-003	0.0	9.584700e-001	-6.642133e-003	0.0	9.519400e-001	-7.474062e-003	0.0	9.449600e-001	-8.253592e-003	0.0	9.375400e-001	-8.990852e-003	0.0	9.296900e-001	-9.710173e-003	0.0	9.214000e-001	-1.044329e-002	0.0	9.127000e-001	-1.121583e-002	0.0	9.035800e-001	-1.204876e-002	0.0	8.940600e-001	-1.294973e-002	0.0	8.841500e-001	-1.391672e-002	0.0	8.738500e-001	-1.494010e-002	0.0	8.631800e-001	-1.600205e-002	0.0	8.521600e-001	-1.708118e-002	0.0	8.407700e-001	-1.815886e-002	0.0	8.290500e-001	-1.921166e-002	0.0	8.170100e-001	-2.022211e-002	0.0	8.046400e-001	-2.117867e-002	0.0	7.919700e-001	-2.207196e-002	0.0	7.790100e-001	-2.290030e-002	0.0	7.657800e-001	-2.366727e-002	0.0	7.522800e-001	-2.438283e-002	0.0	7.385200e-001	-2.506040e-002	0.0	7.245300e-001	-2.571527e-002	0.0	7.103200e-001	-2.636496e-002	0.0	6.958900e-001	-2.702719e-002	0.0	6.812700e-001	-2.771675e-002	0.0	6.664700e-001	-2.844681e-002	0.0	6.515000e-001	-2.922729e-002	0.0	6.363800e-001	-3.006402e-002	0.0	6.211300e-001	-3.095912e-002	0.0	6.057600e-001	-3.191183e-002	0.0	5.902800e-001	-3.291841e-002	0.0	5.747100e-001	-3.397196e-002	0.0	5.590600e-001	-3.506425e-002	0.0	5.433600e-001	-3.618419e-002	0.0	5.276100e-001	-3.732193e-002	0.0	5.118400e-001	-3.846501e-002	0.0	4.960500e-001	-3.960309e-002	0.0	4.802700e-001	-4.072389e-002	0.0	4.645100e-001	-4.181705e-002	0.0	4.487800e-001	-4.287280e-002	0.0	4.331100e-001	-4.388078e-002	0.0	4.175000e-001	-4.483341e-002	0.0	4.019700e-001	-4.572255e-002	0.0	3.865400e-001	-4.654097e-002	0.0	3.712300e-001	-4.728229e-002	0.0	3.560400e-001	-4.794184e-002	0.0	3.409900e-001	-4.851459e-002	0.0	3.261100e-001	-4.899602e-002	0.0	3.114000e-001	-4.938331e-002	0.0	2.968700e-001	-4.967366e-002	0.0	2.825500e-001	-4.986451e-002	0.0	2.684500e-001	-4.995431e-002	0.0	2.545700e-001	-4.994177e-002	0.0	2.409400e-001	-4.982604e-002	0.0	2.275700e-001	-4.960673e-002	0.0	2.144700e-001	-4.928374e-002	0.0	2.016600e-001	-4.885760e-002	0.0	1.891400e-001	-4.832845e-002	0.0	1.769300e-001	-4.769742e-002	0.0	1.650400e-001	-4.696555e-002	0.0	1.534900e-001	-4.613481e-002	0.0	1.422900e-001	-4.520690e-002	0.0	1.314400e-001	-4.418271e-002	0.0	1.209500e-001	-4.306397e-002	0.0	1.108500e-001	-4.185505e-002	0.0	1.011300e-001	-4.055602e-002	0.0	9.181000e-002	-3.917070e-002	0.0	8.290000e-002	-3.770204e-002	0.0	7.440000e-002	-3.615143e-002	0.0	6.633000e-002	-3.452406e-002	0.0	5.869000e-002	-3.282175e-002	0.0	5.149000e-002	-3.104852e-002	0.0	4.474000e-002	-2.920902e-002	0.0	3.844000e-002	-2.730553e-002	0.0	3.260000e-002	-2.534347e-002	0.0	2.723000e-002	-2.332930e-002	0.0	2.232000e-002	-2.126193e-002	0.0	1.790000e-002	-1.915766e-002	0.0	1.395000e-002	-1.701080e-002	0.0	1.049000e-002	-1.483540e-002	0.0	7.520000e-003	-1.263597e-002	0.0	5.040000e-003	-1.041555e-002	0.0	3.050000e-003	-8.173730e-003	0.0	1.560000e-003	-5.919685e-003	0.0	5.600000e-004	-3.621730e-003	0.0	6.000000e-005	-1.239918e-003	0.0	0.000000e+000	0.000000e+000	0.0	6.000000e-005	1.476991e-003	0.0	5.600000e-004	4.642188e-003	0.0	1.560000e-003	7.828255e-003	0.0	3.050000e-003	1.097425e-002	0.0	5.040000e-003	1.407737e-002	0.0	7.520000e-003	1.710254e-002	0.0	1.049000e-002	2.003998e-002	0.0	1.395000e-002	2.288176e-002	0.0	1.790000e-002	2.562180e-002	0.0	2.232000e-002	2.824467e-002	0.0	2.723000e-002	3.076124e-002	0.0	3.260000e-002	3.315629e-002	0.0	3.844000e-002	3.543647e-002	0.0	4.474000e-002	3.759970e-002	0.0	5.149000e-002	3.964551e-002	0.0	5.869000e-002	4.157697e-002	0.0	6.633000e-002	4.339456e-002	0.0	7.440000e-002	4.509940e-002	0.0	8.290000e-002	4.669480e-002	0.0	9.181000e-002	4.818042e-002	0.0	1.011300e-001	4.955966e-002	0.0	1.108500e-001	5.083407e-002	0.0	1.209500e-001	5.200418e-002	0.0	1.314400e-001	5.307389e-002	0.0	1.422900e-001	5.404275e-002	0.0	1.534900e-001	5.491262e-002	0.0	1.650400e-001	5.568588e-002	0.0	1.769300e-001	5.636395e-002	0.0	1.891400e-001	5.694777e-002	0.0	2.016600e-001	5.743893e-002	0.0	2.144700e-001	5.783874e-002	0.0	2.275700e-001	5.814918e-002	0.0	2.409400e-001	5.837163e-002	0.0	2.545700e-001	5.850781e-002	0.0	2.684500e-001	5.855942e-002	0.0	2.825500e-001	5.852820e-002	0.0	2.968700e-001	5.841598e-002	0.0	3.114000e-001	5.822444e-002	0.0	3.261100e-001	5.795559e-002	0.0	3.409900e-001	5.761119e-002	0.0	3.560400e-001	5.719259e-002	0.0	3.712300e-001	5.670184e-002	0.0	3.865400e-001	5.614087e-002	0.0	4.019700e-001	5.551082e-002	0.0	4.175000e-001	5.481356e-002	0.0	4.331100e-001	5.405113e-002	0.0	4.487800e-001	5.322588e-002	0.0	4.645100e-001	5.233934e-002	0.0	4.802700e-001	5.139511e-002	0.0	4.960500e-001	5.039628e-002	0.0	5.118400e-001	4.934657e-002	0.0	5.276100e-001	4.825189e-002	0.0	5.433600e-001	4.711709e-002	0.0	5.590600e-001	4.595013e-002	0.0	5.747100e-001	4.475785e-002	0.0	5.902800e-001	4.355027e-002	0.0	6.057600e-001	4.233670e-002	0.0	6.211300e-001	4.112770e-002	0.0	6.363800e-001	3.993311e-002	0.0	6.515000e-001	3.876230e-002	0.0	6.664700e-001	3.762426e-002	0.0	6.812700e-001	3.652609e-002	0.0	6.958900e-001	3.547144e-002	0.0	7.103200e-001	3.446063e-002	0.0	7.245300e-001	3.349132e-002	0.0	7.385200e-001	3.255474e-002	0.0	7.522800e-001	3.163841e-002	0.0	7.657800e-001	3.072718e-002	0.0	7.790100e-001	2.980154e-002	0.0	7.919700e-001	2.883968e-002	0.0	8.046400e-001	2.782172e-002	0.0	8.170100e-001	2.673002e-002	0.0	8.290500e-001	2.555472e-002	0.0	8.407700e-001	2.429070e-002	0.0	8.521600e-001	2.294510e-002	0.0	8.631800e-001	2.154086e-002	0.0	8.738500e-001	2.010489e-002	0.0	8.841500e-001	1.867772e-002	0.0	8.940600e-001	1.730350e-002	0.0	9.035800e-001	1.601920e-002	0.0	9.127000e-001	1.484947e-002	0.0	9.214000e-001	1.379754e-002	0.0	9.296900e-001	1.283535e-002	0.0	9.375400e-001	1.191425e-002	0.0	9.449600e-001	1.096736e-002	0.0	9.519400e-001	9.936251e-003	0.0	9.584700e-001	8.790654e-003	0.0	9.645400e-001	7.543377e-003	0.0	9.701500e-001	6.247475e-003	0.0	9.752800e-001	4.986084e-003	0.0	9.799500e-001	3.832067e-003	0.0	9.841300e-001	2.846816e-003	0.0	9.878400e-001	2.045348e-003	0.0	9.910500e-001	1.423093e-003	0.0	9.937800e-001	9.477332e-004	0.0	9.960200e-001	5.901569e-004	0.0	9.977600e-001	3.275564e-004	0.0	9.990000e-001	1.454772e-004	0.0	9.997500e-001	3.633251e-005	0.0	1.000000e+000	0.000000e+000	0.0	1.984229e+001	2.506660e+000	0.0	1.937166e+001	4.973800e+000	0.0	1.859553e+001	7.362490e+000	0.0	1.752613e+001	9.635070e+000	0.0	1.618034e+001	1.175571e+001	0.0	1.457937e+001	1.369094e+001	0.0	1.274848e+001	1.541027e+001	0.0	1.071654e+001	1.688656e+001	0.0	8.515590e+000	1.809654e+001	0.0	6.180340e+000	1.902113e+001	0.0	3.747630e+000	1.964575e+001	0.0	1.255810e+000	1.996053e+001	0.0	-1.255810e+000	1.996053e+001	0.0	-3.747630e+000	1.964574e+001	0.0	-6.180340e+000	1.902113e+001	0.0	-8.515590e+000	1.809654e+001	0.0	-1.071654e+001	1.688656e+001	0.0	-1.274848e+001	1.541026e+001	0.0	-1.457937e+001	1.369094e+001	0.0	-1.618034e+001	1.175570e+001	0.0	-1.752613e+001	9.635070e+000	0.0	-1.859553e+001	7.362490e+000	0.0	-1.937166e+001	4.973800e+000	0.0	-1.984229e+001	2.506660e+000	0.0	-2.000000e+001	0.000000e+000	0.0	-1.984229e+001	-2.506670e+000	0.0	-1.937166e+001	-4.973800e+000	0.0	-1.859553e+001	-7.362490e+000	0.0	-1.752613e+001	-9.635080e+000	0.0	-1.618034e+001	-1.175571e+001	0.0	-1.457937e+001	-1.369094e+001	0.0	-1.274848e+001	-1.541027e+001	0.0	-1.071653e+001	-1.688656e+001	0.0	-8.515580e+000	-1.809654e+001	0.0	-6.180340e+000	-1.902113e+001	0.0	-3.747620e+000	-1.964575e+001	0.0	-1.255810e+000	-1.996053e+001	0.0	1.255810e+000	-1.996053e+001	0.0	3.747630e+000	-1.964574e+001	0.0	6.180340e+000	-1.902113e+001	0.0	8.515590e+000	-1.809654e+001	0.0	1.071654e+001	-1.688656e+001	0.0	1.274848e+001	-1.541026e+001	0.0	1.457937e+001	-1.369094e+001	0.0	1.618034e+001	-1.175570e+001	0.0	1.752614e+001	-9.635070e+000	0.0	1.859553e+001	-7.362490e+000	0.0	1.937166e+001	-4.973790e+000	0.0	1.984229e+001	-2.506660e+000	0.0	2.000000e+001	0.000000e+000	0.0	6.098239e-002	-4.070793e-002	0.0	6.598785e-001	-4.276729e-002	0.0	4.259969e-001	6.876983e-002	0.0	6.896958e-001	4.956470e-002	0.0	3.794575e-001	-6.094171e-002	0.0	9.994565e-001	-7.301227e-004	0.0	9.985351e-001	-1.326277e-003	0.0	7.733277e-001	-3.534894e-002	0.0	6.894669e-001	-4.093456e-002	0.0	-1.538820e-003	7.183710e-003	0.0	7.463018e-001	-3.733388e-002	0.0	5.835694e-001	5.852464e-002	0.0	9.927590e-001	-3.628909e-003	0.0	9.898575e-001	-4.539865e-003	0.0	5.991044e-001	5.724546e-002	0.0	7.183151e-001	-3.915557e-002	0.0	-1.571760e-003	9.615997e-004	0.0	9.864657e-001	-5.545894e-003	0.0	9.825917e-001	-6.635625e-003	0.0	-1.335493e-003	-5.672571e-003	0.0	6.448448e-001	-4.372839e-002	0.0	8.240148e-001	-3.066894e-002	0.0	7.992628e-001	-3.314141e-002	0.0	3.488879e-001	7.124149e-002	0.0	8.474443e-001	-2.800870e-002	0.0	2.475787e-001	7.100875e-002	0.0	8.694889e-001	-2.526384e-002	0.0	9.728849e-003	2.445389e-002	0.0	8.900466e-001	-2.257165e-002	0.0	7.726419e-002	-4.474082e-002	0.0	9.090517e-001	-2.002814e-002	0.0	-1.911970e-003	-2.775388e-003	0.0	9.420975e-001	-1.528792e-002	0.0	9.264285e-001	-1.763377e-002	0.0	1.815015e-002	-2.434723e-002	0.0	4.260455e-001	-5.869689e-002	0.0	8.586487e-001	-2.663584e-002	0.0	9.560013e-001	-1.286076e-002	0.0	9.782277e-001	-7.820265e-003	0.0	9.680668e-001	-1.031880e-002	0.0	1.585249e-001	-5.712432e-002	0.0	8.997497e-001	-2.127891e-002	0.0	7.599454e-001	-3.636699e-002	0.0	9.971063e-001	-2.066081e-003	0.0	5.989545e-001	-4.683059e-002	0.0	4.417324e-001	-5.779425e-002	0.0	5.364328e-001	-5.134824e-002	0.0	4.732632e-001	-5.580429e-002	0.0	5.048675e-001	-5.362855e-002	0.0	4.890558e-001	-5.473439e-002	0.0	1.251996e-001	-5.322855e-002	0.0	2.806644e-002	-2.934330e-002	0.0	3.948957e-001	-6.027802e-002	0.0	4.645563e-002	-3.637
[...]
POINT_DATA 5233

SCALARS Density float 1
LOOKUP_TABLE default
1.193583e+000	1.170215e+000	1.155949e+000	1.144554e+000	1.134757e+000	1.125480e+000	1.115153e+000	1.103012e+000	1.088534e+000	1.072087e+000	1.054898e+000	1.039208e+000	1.027495e+000	1.021116e+000	1.019764e+000	1.021801e+000	1.025178e+000	1.028102e+000	1.029401e+000	1.028572e+000	1.025606e+000	1.020788e+000	1.014557e+000	1.007451e+000	1.000017e+000	9.928529e-001	9.865309e-001	9.815581e-001	9.782713e-001	9.768211e-001	9.771589e-001	9.790190e-001	9.820234e-001	9.857119e-001	9.896535e-001	9.934509e-001	9.967704e-001	9.993856e-001	1.001115e+000	1.001890e+000	1.001657e+000	1.000440e+000	9.982677e-001	9.952130e-001	9.913489e-001	9.867684e-001	9.815685e-001	9.758406e-001	9.696685e-001	9.631146e-001	9.562407e-001	9.491153e-001	9.418140e-001	9.344154e-001	9.269292e-001	9.193984e-001	9.118187e-001	9.042585e-001	8.967538e-001	8.893558e-001	8.821371e-001	8.750784e-001	8.681428e-001	8.612583e-001	8.545935e-001	8.485024e-001	8.435686e-001	8.401935e-001	8.385447e-001	8.384396e-001	8.396468e-001	8.419851e-001	8.454234e-001	8.498383e-001	8.550690e-001	8.609029e-001	8.673419e-001	8.744857e-001	8.823381e-001	8.908949e-001	9.002320e-001	9.103696e-001	9.214093e-001	9.334158e-001	9.465182e-001	9.609135e-001	9.767341e-001	9.942093e-001	1.013676e+000	1.035350e+000	1.059696e+000	1.087258e+000	1.118370e+000	1.153796e+000	1.193810e+000	1.237584e+000	1.281607e+000	1.329377e+000	1.349001e+000	1.349491e+000	1.351024e+000	1.331130e+000	1.281568e+000	1.227718e+000	1.166463e+000	1.105092e+000	1.046764e+000	9.933412e-001	9.455418e-001	9.037733e-001	8.677416e-001	8.366047e-001	8.098018e-001	7.866363e-001	7.666977e-001	7.497311e-001	7.351972e-001	7.224978e-001	7.112316e-001	7.010529e-001	6.918356e-001	6.837533e-001	6.769964e-001	6.712804e-001	6.660632e-001	6.609270e-001	6.561024e-001	6.517352e-001	6.477053e-001	6.437255e-001	6.398261e-001	6.362029e-001	6.331049e-001	6.305488e-001	6.284710e-001	6.267095e-001	6.251317e-001	6.236571e-001	6.221611e-001	6.206027e-001	6.189534e-001	6.173028e-001	6.157357e-001	6.141873e-001	6.125039e-001	6.106638e-001	6.087064e-001	6.068311e-001	6.050733e-001	6.036941e-001	6.025989e-001	6.017788e-001	6.012535e-001	6.017923e-001	6.044876e-001	6.055868e-001	6.036922e-001	6.222623e-001	7.548326e-001	9.556429e-001	1.007924e+000	9.991639e-001	9.917657e-001	9.913742e-001	9.893242e-001	9.853105e-001	9.808429e-001	9.761618e-001	9.713985e-001	9.670136e-001	9.636317e-001	9.619151e-001	9.624978e-001	9.658282e-001	9.719029e-001	9.803241e-001	9.901789e-001	1.000251e+000	1.009200e+000	1.015803e+000	1.018981e+000	1.018127e+000	1.013478e+000	1.006680e+000	1.000951e+000	1.000331e+000	1.008372e+000	1.025767e+000	1.049240e+000	1.073419e+000	1.094712e+000	1.111497e+000	1.123431e+000	1.131550e+000	1.137282e+000	1.142998e+000	1.150073e+000	1.160787e+000	1.174586e+000	1.168655e+000	9.986763e-001	9.995623e-001	9.996110e-001	9.994197e-001	9.992722e-001	9.990900e-001	9.988786e-001	9.986205e-001	9.983437e-001	9.981560e-001	9.980575e-001	9.981649e-001	9.984244e-001	9.989175e-001	9.993325e-001	9.996776e-001	9.998799e-001	1.000013e+000	1.000106e+000	1.000153e+000	1.000185e+000	1.000201e+000	1.000217e+000	1.000231e+000	1.000243e+000	1.000260e+000	1.000286e+000	1.000319e+000	1.000364e+000	1.000433e+000	1.000511e+000	1.000644e+000	1.000776e+000	1.001007e+000	1.001233e+000	1.001525e+000	1.001845e+000	1.001995e+000	1.002054e+000	1.001907e+000	1.001732e+000	1.001471e+000	1.001230e+000	1.000995e+000	1.000785e+000	1.000541e+000	1.000350e+000	1.000335e+000	9.993632e-001	9.980764e-001	9.412635e-001	1.000246e+000	6.150903e-001	9.918181e-001	9.112493e-001	1.173046e+000	1.161042e+000	9.810551e-001	9.974701e-001	1.309590e+000	9.856584e-001	6.060928e-001	1.127502e+000	1.117668e+000	6.034613e-001	9.920278e-001	1.347119e+000	1.106909e+000	1.094757e+000	1.314250e+000	1.000376e+000	9.873157e-001	9.811000e-001	6.239341e-001	9.985926e-001	6.377456e-001	1.011641e+000	1.060560e+000	1.022552e+000	9.174484e-001	1.028171e+000	1.339569e+000	1.025000e+000	1.027569e+000	1.071262e+000	9.329606e-001	1.005147e+000	1.030827e+000	1.081077e+000	1.052016e+000	8.555197e-001	1.026163e+000	9.829439e-001	1.147943e+000	9.954983e-001	9.400559e-001	9.785521e-001	9.539419e-001	9.669495e-001	9.605988e-001	8.733082e-001	1.024162e+000	9.185322e-001	9.696822e-001	9.257726e-001	8.829548e-001	8.968248e-001	1.004130e+000	8.695861e-001	1.025980e+000	8.607567e-001	8.458428e-001	9.069973e-001	8.885699e-001	9.882859e-001	8.512010e-001	9.979771e-001	1.017592e+000	1.046420e+000	1.137342e+000	1.164267e+000	9.656173e-001	1.028543e+000	1.026155e+000	1.066419e+000	1.269223e+000	9.924957e-001	8.514632e-001	9.836969e-001	9.888073e-001	9.803465e-001	8.805559e-001	8.454025e-001	9.922527e-001	9.992649e-001	9.548279e-001	1.201693e+000	1.098978e+000	9.039947e-001	8.479764e-001	1.206050e+000	8.475829e-001	8.973920e-001	8.762363e-001	8.567923e-001	9.470745e-001	9.950049e-001	1.341483e+000	1.280377e+000	6.036413e-001	1.345720e+000	8.887009e-001	7.835835e-001	8.289950e-001	6.932506e-001	6.169296e-001	1.143345e+000	6.047060e-001	6.091059e-001	1.064227e+000	1.026621e+000	1.005054e+000	6.073753e-001	6.131147e-001	6.203711e-001	1.016005e+000	1.015948e+000	7.356609e-001	1.083075e+000	1.014446e+000	1.009488e+000	7.119835e-001	7.653832e-001	6.308415e-001	6.350478e-001	6.626261e-001	6.273848e-001	6.111058e-001	6.186723e-001	6.735403e-001	6.859151e-001	6.428735e-001	6.532941e-001	6.447436e-001	1.009438e+000	6.041427e-001	9.839434e-001	9.907341e-001	9.692663e-001	9.761156e-001	9.737971e-001	9.673059e-001	1.011671e+000	9.883401e-001	1.009143e+000	1.017375e+000	1.044343e+000	9.803315e-001	9.969467e-001	9.674025e-001	9.693956e-001	9.800770e-001	9.723480e-001	9.913291e-001	9.876935e-001	8.837617e-001	1.002842e+000	6.030158e-001	6.050536e-001	6.489240e-001	6.410049e-001	6.678847e-001	6.578541e-001	8.046431e-001	6.795641e-001	1.010993e+000	8.569346e-001	8.449193e-001	1.167195e+000	1.039631e+000	9.834362e-001	8.897942e-001	9.729556e-001	1.220973e+000	9.247777e-001	1.113087e+000	7.232379e-001	7.495614e-001	6.327790e-001	7.019403e-001	1.099199e+000	1.111959e+000	6.290794e-001	1.121678e+000	1.129287e+000	6.257132e-001	6.221302e-001	1.012717e+000	1.184935e+000	1.152923e+000	1.162807e+000	9.996067e-001	9.860521e-001	1.136107e+000	6.058406e-001	1.241499e+000	1.129995e+000	9.288353e-001	8.667327e-001	8.629985e-001	7.660550e-001	1.285409e+000	1.319207e+000	8.720075e-001	9.958928e-001	1.028159e+000	1.163307e+000	6.072644e-001	9.975559e-001	9.840334e-001	1.109588e+000	8.910656e-001	1.003865e+000	9.932183e-001	9.143088e-001	1.294177e+000	8.527031e-001	1.103611e+000	1.041342e+000	8.674282e-001	9.937058e-001	9.989522e-001	9.455331e-001	9.249507e-001	9.183055e-001	1.023793e+000	9.843907e-001	1.111125e+000	9.790163e-001	1.005360e+000	9.768241e-001	7.145151e-001	9.919131e-001	6.764530e-001	9.951458e-001	1.111224e+000	6.298333e-001	6.089110e-001	1.020661e+000	1.002124e+000	1.119940e+000	1.029280e+000	1.087865e+000	6.473472e-001	6.318825e-001	6.512078e-001	7.251894e-001	9.986296e-001	8.533260e-001	1.064711e+000	6.894971e-001	8.236111e-001	1.057408e+000	1.127489e+000	1.008318e+000	8.622731e-001	1.198178e+000	1.142829e+000	1.134790e+000	1.158292e+000	1.248746e+000	1.196208e+000	1.336972e+000	1.340324e+000	1.077316e+000	1.206965e+000	9.490711e-001	1.149602e+000	1.129003e+000	6.201764e-001	9.807905e-001	1.098911e+000	1.015051e+000	6.072893e-001	1.119452e+000	1.321846e+000	9.388386e-001	6.221769e-001	9.982646e-001	6.383656e-001	1.009587e+000	1.019882e+000	9.365020e-001	1.026563e+000	1.028754e+000	1.030687e+000	1.031830e+000	1.034567e+000	1.050934e+000	1.087283e+000	8.801406e-001	9.865051e-001	9.848416e-001	1.138857e+000	9.520942e-001	9.585025e-001	9.646023e-001	1.053582e+000	9.252174e-001	9.320926e-001	8.977054e-001	9.941353e-001	1.028804e+000	1.029103e+000	8.734349e-001	9.045222e-001	9.853244e-001	9.953951e-001	1.062504e+000	1.074954e+000	9.912544e-001	9.887585e-001	8.956237e-001	8.875073e-001	9.893298e-001	9.926946e-001	9.778140e-001	9.628366e-001	1.132171e+000	9.044707e-001	9.113638e-001	8.582352e-001	8.552152e-001	8.536980e-001	8.563491e-001	8.782475e-001	8.846198e-001	8.606053e-001	1.338106e+000	1.230750e+000	8.479784e-001	1.100672e+000	6.073946e-001	6.103968e-001	6.122513e-001	6.140821e-001	1.073186e+000	1.042106e+000	1.016894e+000	6.161152e-001	6.181237e-001	6.241476e-001	1.015931e+000	1.016526e+000	7.828963e-001	8.019904e-001	6.439805e-001	6.409588e-001	6.826097e-001	6.972580e-001	7.053856e-001	9.745060e-001	9.863490e-001	9.895749e-001	9.770786e-001	9.737009e-001	1.013050e+000	9.880873e-001	9.817978e-001	9.724037e-001	9.727948e-001	9.801242e-001	9.832634e-001	9.923037e-001	9.918845e-001	9.850660e-001	7.513722e-001	6.064968e-001	6.064793e-001	6.134670e-001	5.954092e-001	6.554375e-001	6.602490e-001	6.653817e-001	6.708658e-001	1.020536e+000	8.755938e-001	9.067412e-001	9.860561e-001	9.890542e-001	9.703720e-001	9.757739e-001	1.205337e+000	9.411847e-001	7.373817e-001	7.509861e-001	6.338853e-001	6.360199e-001	6.260073e-001	6.278790e-001	1.015742e+000	1.016442e+000	9.973384e-001	9.985495e-001	1.012043e+000	1.264381e+000	8.659652e-001	1.300950e+000	9.251736e-001	8.809002e-001	9.877048e-001	9.783836e-001	1.029234e+000	1.110989e+000	1.102106e+000	1.041993e+000	1.192599e+000	1.119208e+000	1.152135e+000	1.164756e+000	1.139663e+000	1.187999e+000	1.082726e+000	1.318217e+000	9.222071e-001	1.030460e+000	1.112299e+000	6.113719e-001	1.162022e+000	1.191009e+000	9.947903e-001	1.250221e+000	9.930646e-001	1.107103e+000	1.013406e+000	1.161642e+000	8.991965e-001	1.008460e+000	9.962560e-001	1.121794e+000	1.133675e+000	1.079933e+000	6.125374e-001	1.025362e+000	1.005310e+000	1.125918e+000	6.143822e-001	6.475121e-001	6.367097e-001	6.930211e-001	8.010599e-001	1.158958e+000	1.273819e+000	1.261448e+000	1.029758e+000	1.295614e+000	1.051068e+000	9.329341e-001	1.333361e+000	8.745425e-001	9.506757e-001	1.060097e+000	1.110478e+000	9.803506e-001	9.790017e-001	9.949126e-001	1.091833e+000	1.032154e+000	1.006304e+000	1.000628e+000	6.391272e-001	6.444009e-001	6.585994e-001	7.398620e-001	9.976929e-001	9.972163e-001	8.612187e-001	1.069686e+000	7.002046e-001	1.067135e+000	1.133239e+000	1.151893e+000	1.230705e+000	1.220884e+000	1.317426e+000	1.038960e+000	1.178915e+000	1.169138e+000	1.060608e+000	1.102817e+000	6.092593e-001	9.444635e-001	6.261025e-001	9.986641e-001	1.003447e+000	1.017988e+000	1.021983e+000	9.572324e-001	9.446064e-001	1.025186e+000	1.027586e+000	1.037580e+000	1.043262e+000	1.092766e+000	9.881726e-001	9.875416e-001	1.130605e+000	9.568061e-001	9.626942e-001	9.317382e-001	9.381116e-001	1.019779e+000	1.031781e+000	1.033911e+000	8.875010e-001	8.806334e-001	9.827557e-001	9.867183e-001	1.071192e+000	1.082053e+000	9.912191e-001	9.895204e-001	9.123383e-001	9.031544e-001	8.949022e-001	9.900958e-001	9.929563e-001	1.002373e+000	9.861199e-001	9.710190e-001	9.055221e-001	9.120283e-001	9.185710e-001	8.697028e-001	8.658165e-001	8.629573e-001	8.610188e-001	8.623853e-001	8.869066e-001	8.929525e-001	8.654532e-001	8.672839e-001	6.159539e-001	6.178839e-001	1.054071e+000	6.197606e-001	6.217949e-001	6.238721e-001	6.283082e-001	1.017098e+000	8.208879e-001	8.430055e-001	6.508162e-001	6.546315e-001	7.086680e-001	7.186711e-001	7.289654e-001	9.888864e-001	1.014732e+000	1.011095e+000	9.946576e-001	9.888895e-001	9.840928e-001	9.779958e-001	9.772280e-001	9.776079e-001	9.810786e-001	9.833658e-001	9.860560e-001	9.918488e-001	9.932260e-001	9.910729e-001	9.012026e-001	6.104971e-001	6.115856e-001	6.522001e-001	5.979221e-001	6.038485e-001	6.630828e-001	6.678793e-001	6.735652e-001	6.796907e-001	6.863661e-001	8.940325e-001	9.240360e-001	9.889367e-001	9.912334e-001	9.944968e-001	9.682777e-001	9.735019e-001	9.571100e-001	9.921647e-001	7.525881e-001	7.672020e-001	7.833022e-001	6.416866e-001	6.305320e-001	6.325442e-001	6.345352e-001	1.021479e+000	1.019592e+000	1.018477e+000	9.950938e-001	9.966618e-001	9.974608e-001	8.698059e-001	8.751557e-001	1.280177e+000	9.303674e-001	1.124786e+000	1.084339e+000	9.805463e-001	1.296203e+000	1.148090e+000	1.031496e+000	1.033724e+000	1.044875e+000	1.110607e+000	6.210899e-001	1.255471e+000	1.072482e+000	1.183164e+000	1.042701e+000	1.117929e+000	1.240402e+000	9.773134e-001	1.212758e+000	1.166819e+000	1.182407e+000	9.914155e-001	8.830830e-001	1.086585e+000	9.321678e-001	9.411980e-001	9.499288e-001	8.903704e-001	1.094082e+000	6.163343e-001	1.034753e+000	1.028829e+000	9.827135e-001	7.135148e-001	6.596353e-001	1.105892e+000	8.393214e-001	1.012766e+000	1.139803e+000	1.102845e+000	1.131277e+000	1.068637e+000	1.108731e+000	9.954711e-001	1.209281e+000	9.944528e-001	9.930326e-001	1.132825e+000	1.114522e+000	1.157848e+000	9.830860e-001	6.184758e-001	6.487029e-001	1.271745e+000	1.108368e+000	1.007805e+000	1.005395e+000	6.458639e-001	6.521941e-001	6.555329e-001	9.967689e-001	9.962853e-001	1.073749e+000	1.143856e+000	1.179444e+000	1.234546e+000	1.297707e+000	1.065057e+000	1.059695e+000	1.096949e+000	6.124384e-001	1.003979e+000	1.008254e+000	1.016971e+000	1.020845e+000	9.652975e-001	9.527803e-001	1.024177e+000	1.027048e+000	1.029427e+000	1.045096e+000	1.051736e+000	9.903073e-001	9.910639e-001	1.123011e+000	9.557248e-001	9.613837e-001	9.380939e-001	9.440897e-001	1.036341e+000	1.039975e+000	8.958025e-001	8.884920e-001	9.843326e-001	1.078041e+000	1.087616e+000	9.920713e-001	9.910533e-001	9.203879e-001	9.113342e-001	9.033781e-001	9.879273e-001	9.906313e-001	1.027084e+000	1.009978e+000	9.936405e-001	9.787408e-001	9.075413e-001	9.136178e-001	9.196763e-001	9.258771e-001	8.784710e-001	8.747528e-001	8.719187e-001	8.705602e-001	8.706195e-001	9.017320e-001	8.959034e-001	8.724119e-001	6.227379e-001	1.062908e+000	1.052284e+000	6.248188e-001	6.266429e-001	6.288257e-001	6.309333e-001	6.334724e-001	8.618530e-001	8.864615e-001	6.635339e-001	6.682926e-001	7.222671e-001	7.326323e-001	7.444642e-001	7.567187e-001	1.016998e+000	1.013887e+000	1.009895e+000	1.000280e+000	9.954080e-001	9.906910e-001	9.868699e-001	9.818897e-001	9.814569e-001	9.811103e-001	9.838971e-001	9.858914e-001	9.875226e-001	9.891205e-001	9.910992e-001	9.947051e-001	9.992061e-001	6.179383e-001	6.161097e-001	7.622956e-001	6.278818e-001	6.057822e-001	6.025055e-001	6.726938e-001	6.780223e-001	6.831875e-001	6.898328e-001	6.967384e-001	7.048412e-001	9.120730e-001	9.397834e-001	9.938433e-001	9.965482e-001	9.999546e-001	9.668122e-001	9.713519e-001	9.760385e-001	9.709456e-001	1.003667e+000	1.036931e+000	7.694974e-001	7.841861e-001	8.012483e-001	8.195309e-001	6.358033e-001	6.384075e-001	6.406789e-001	6.430010e-001	1.019609e+000	1.024746e+000	1.021957e+000	9.931656e-001	9.947199e-001	9.961070e-001	9.965565e-001	8.755172e-001	8.798973e-001	8.848666e-001	1.131214e+000	1.119917e+000	1.066983e+000	1.161793e+000	1.153640e+000	9.943249e-001	9.389850e-001	1.175839e+000	1.078472e+000	1.220311e+000	1.068897e+000	8.930142e-001	7.382256e-001	1.106685e+000	1.197297e+000	1.270531e+000	1.312681e+000	1.313150e+000	1.304373e+000	1.239006e+000	1.126451e+000	6.568995e-001	1.075114e+000	1.108301e+000	1.038143e+000	9.949891e-001	9.389052e-001	1.110138e+000	1.020043e+000	1.031323e+000	6.226638e-001	6.253381e-001	9.269839e-001	9.853395e-001	6.284157e-001	9.800776e-001	6.520953e-001	1.103224e+000	9.497439e-001	1.153000e+000	1.087300e+000	1.305570e+000	1.175348e+000	1.164451e+000	1.034608e+000	1.050813e+000	1.259516e+000	1.074817e+000	1.198290e+000	1.043361e+000	1.222150e+000	1.162961e+000	1.169820e+000	1.109832e+000	9.040313e-001	8.994951e-001	1.095494e+000	6.182186e-001	1.036632e+000	1.100170e+000	9.956323e-001	1.248587e+000	6.593307e-001	6.649270e-001	6.677170e-001	9.960990e-001	1.137518e+000	1.168115e+000	1.274856e+000	1.089599e+000	1.008948e+000	1.012330e+000	1.016546e+000	1.020147e+000	9.611701e-001	9.739423e-001	1.023757e+000	1.026654e+000	1.029567e+000	1.032472e+000	1.052482e+000	1.059341e+000	9.932618e-001	1.115904e+000	9.546108e-001	9.600703e-001	9.435620e-001	9.492994e-001	1.042050e+000	1.046607e+000	9.040512e-001	8.961950e-001	1.083546e+000	1.091976e+000	9.934845e-001	9.287246e-001	9.189345e-001	9.133765e-001	9.871648e-001	1.033736e+000	1.017066e+000	1.001147e+000	9.873399e-001	9.101786e-001	9.150635e-001	9.212893e-001	9.264679e-001	9.327114e-001	8.868212e-001	8.846892e-001	8.803432e-001	8.806583e-001	8.795177e-001	1.069269e+000	1.060137e+000	1.051362e+000	6.295741e-001	6.324242e-001	6.336913e-001	6.367303e-001	6.381300e-001	8.805566e-001	9.048426e-001	6.740898e-001	6.773021e-001	7.455054e-001	7.604965e-001	7.746050e-001	1.017066e+000	1.013231e+000	1.009407e+000	1.004826e+000	1.000599e+000	9.958420e-001	9.920440e-001	9.870970e-001	9.848177e-001	9.840168e-001	9.859634e-001	9.911198e-001	1.015327e+000	6.404785e-001	6.121231e-001	6.844753e-001	6.879354e-001	6.960495e-001	7.001071e-001	7.099314e-001	7.180061e-001	7.277429e-001	9.299756e-001	9.554294e-001	9.985262e-001	1.001091e+000	1.004972e+000	9.659105e-001	9.720694e-001	9.832923e-001	1.014011e+000	1.043951e+000	7.884816e-001	8.031906e-001	8.201088e-001	8.399941e-001	8.598177e-001	6.415917e-001	6.433914e-001	6.472295e-001	6.501474e-001	1.027107e+000	1.023555e+000	9.921194e-001	9.950447e-001	8.826207e-001	8.845463e-001	8.897015e-001	8.935506e-001	1.155049e+000	1.146314e+000	1.168125e+000	1.280843e+000	1.174598e+000	1.080103e+000	1.096542e+000	1.228091e+000	1.050564e+000	1.129961e+000	1.095222e+000	1.255438e+000	1.072293e+000	1.148432e+000	6.617765e-001	1.161260e+000	1.131359e+000	1.205209e+000	1.128730e+000	1.072769e+000	9.763062e-001	1.089237e+000	9.095833e-001	1.043174e+000	1.037282e+000	9.928935e-001	9.474776e-001	8.989736e-001	1.222918e+000	9.464628e-001	9.707325e-001	9.592187e-001	7.693812e-001	1.073632e+000	1.022003e+000	1.248177e+000	1.104219e+000	1.065753e+000	1.156677e+000	1.081469e+000	1.309452e+000	1.240102e+000	1.102698e+000	9.953661e-001	6.334777e-001	6.365058e-001	1.103396e+000	1.163362e+000	1.122449e+000	1.282952e+000	1.168744e+000	1.055928e+000	1.206218e+000	1.187538e+000	6.280563e-001	1.090739e+000	1.044054e+000	1.037966e+000	6.307022e-001	6.703439e-001	6.802679e-001	9.956401e-001	1.157732e+000	1.182799e+000	1.110208e+000	1.014605e+000	1.021468e+000	9.822492e-001	1.028004e+000	1.033112e+000	1.059113e+000	1.110006e+000	9.558367e-001	1.048006e+000	1.053090e+000	9.088623e-001	1.087606e+000	9.955805e-001	9.968615e-001	9.330409e-001	9.215940e-001	9.833420e-001	1.039779e+000	1.022847e+000	1.007527e+000	9.974223e-001	9.197766e-001	9.300643e-001	9.392117e-001	8.916051e-001	8.891957e-001	1.065759e+000	1.058053e+000	6.404306e-001	6.452540e-001	9.215594e-001	6.914298e-001	7.922618e-001	9.863340e-001	1.014615e+000	1.006424e+000	9.982995e-001	9.924593e-001	9.884442e-001	9.859774e-001	9.850307e-001	9.843782e-001	1.003860e+000	1.003949e+000	7.784256e-001	6.220593e-001	6.124772e-001	7.040272e-001	7.181294e-001	7.330688e-001	7.399067e-001	7.541661e-001	9.467671e-001	9.705836e-001	9.998710e-001	1.004091e+000	1.009595e+000	9.641239e-001	9.699718e-001	9.949230e-001	1.022357e+000	1.050071e+000	1.076711e+000	8.087320e-001	8.234798e-001	8.397650e-001	8.592877e-001	8.822970e-001	8.973796e-001	6.506114e-001	6.568262e-001	1.032481e+000	1.028391e+000	9.890910e-001	9.950380e-001	9.958178e-001	8.924568e-001	9.000107e-001	1.109091e+000	1.156569e+000	1.150899e+000	1.128942e+000	1.022175e+000	1.097448e+000	1.158069e+000	1.124819e+000	1.177299e+000	1.126141e+000	1.136791e+000	1.116135e+000	1.148509e+000	1.227563e+000	1.236840e+000	1.062888e+000	9.972325e-001	6.693324e-001	1.117390e+000	1.032479e+000	1.091550e+000	9.268574e-001	1.125909e+000	1.160553e+000	9.458477e-001	1.048537e+000	9.934586e-001	9.799255e-001	1.077302e+000	1.083893e+000	1.075131e+000	1.060927e+000	1.156470e+000	1.083621e+000	1.090335e+000	1.049999e+000	6.883290e-001	6.262772e-001	9.960691e-001	9.897199e-001	1.141680e+000	1.146665e+000	1.288483e+000	1.070820e+000	1.056145e+000	1.169725e+000	1.090723e+000	1.209639e+000	1.143076e+000	9.736202e-001	1.222555e+000	9.811740e-001	9.673467e-001	1.076696e+000	1.259772e+000	1.064672e+000	1.097477e+000	9.965457e-001	1.261527e+000	1.168807e+000	1.003958e+000	1.208053e+000	1.193191e+000	6.