# vtk DataFile Version 3.0
vtk output
ASCII
DATASET UNSTRUCTURED_GRID
POINTS 5233 float
9.997500e-001	-3.632941e-005	0.0	9.990000e-001	-1.452819e-004	0.0	9.977600e-001	-3.254244e-004	0.0	9.960200e-001	-5.787251e-004	0.0	9.937800e-001	-9.068693e-004	0.0	9.910500e-001	-1.311920e-003	0.0	9.878400e-001	-1.798257e-003	0.0	9.841300e-001	-2.377353e-003	0.0	9.799500e-001	-3.054889e-003	0.0	9.752800e-001	-3.844939e-003	0.0	9.701500e-001	-4.751435e-003	0.0	9.645400e-001	-5.782267e-003	0.0	9.584700e-001	-6.930662e-003	0.0	9.519400e-001	-8.183551e-003	0.0	9.449600e-001	-9.515170e-003	0.0	9.375400e-001	-1.088983e-002	0.0	9.296900e-001	-1.226485e-002	0.0	9.214000e-001	-1.359792e-002	0.0	9.127000e-001	-1.484221e-002	0.0	9.035800e-001	-1.596380e-002	0.0	8.940600e-001	-1.693482e-002	0.0	8.841500e-001	-1.774132e-002	0.0	8.738500e-001	-1.838238e-002	0.0	8.631800e-001	-1.886701e-002	0.0	8.521600e-001	-1.921399e-002	0.0	8.407700e-001	-1.944979e-002	0.0	8.290500e-001	-1.960352e-002	0.0	8.170100e-001	-1.970733e-002	0.0	8.046400e-001	-1.979364e-002	0.0	7.919700e-001	-1.989354e-002	0.0	7.790100e-001	-2.003600e-002	0.0	7.657800e-001	-2.024669e-002	0.0	7.522800e-001	-2.054772e-002	0.0	7.385200e-001	-2.095679e-002	0.0	7.245300e-001	-2.148609e-002	0.0	7.103200e-001	-2.214338e-002	0.0	6.958900e-001	-2.293226e-002	0.0	6.812700e-001	-2.385028e-002	0.0	6.664700e-001	-2.489186e-002	0.0	6.515000e-001	-2.604816e-002	0.0	6.363800e-001	-2.730679e-002	0.0	6.211300e-001	-2.865328e-002	0.0	6.057600e-001	-3.007273e-002	0.0	5.902800e-001	-3.154970e-002	0.0	5.747100e-001	-3.306775e-002	0.0	5.590600e-001	-3.461181e-002	0.0	5.433600e-001	-3.616562e-002	0.0	5.276100e-001	-3.771687e-002	0.0	5.118400e-001	-3.925149e-002	0.0	4.960500e-001	-4.075954e-002	0.0	4.802700e-001	-4.222940e-002	0.0	4.645100e-001	-4.365254e-002	0.0	4.487800e-001	-4.502141e-002	0.0	4.331100e-001	-4.632765e-002	0.0	4.175000e-001	-4.756628e-002	0.0	4.019700e-001	-4.873127e-002	0.0	3.865400e-001	-4.981724e-002	0.0	3.712300e-001	-5.081937e-002	0.0	3.560400e-001	-5.173448e-002	0.0	3.409900e-001	-5.255835e-002	0.0	3.261100e-001	-5.328671e-002	0.0	3.114000e-001	-5.391709e-002	0.0	2.968700e-001	-5.444660e-002	0.0	2.825500e-001	-5.487194e-002	0.0	2.684500e-001	-5.519090e-002	0.0	2.545700e-001	-5.540153e-002	0.0	2.409400e-001	-5.550167e-002	0.0	2.275700e-001	-5.548988e-002	0.0	2.144700e-001	-5.536492e-002	0.0	2.016600e-001	-5.512601e-002	0.0	1.891400e-001	-5.477233e-002	0.0	1.769300e-001	-5.430374e-002	0.0	1.650400e-001	-5.372019e-002	0.0	1.534900e-001	-5.302247e-002	0.0	1.422900e-001	-5.221131e-002	0.0	1.314400e-001	-5.128668e-002	0.0	1.209500e-001	-5.024926e-002	0.0	1.108500e-001	-4.910226e-002	0.0	1.011300e-001	-4.784476e-002	0.0	9.181000e-002	-4.647930e-002	0.0	8.290000e-002	-4.500751e-002	0.0	7.440000e-002	-4.342921e-002	0.0	6.633000e-002	-4.174784e-002	0.0	5.869000e-002	-3.996310e-002	0.0	5.149000e-002	-3.807658e-002	0.0	4.474000e-002	-3.609018e-002	0.0	3.844000e-002	-3.400271e-002	0.0	3.260000e-002	-3.181586e-002	0.0	2.723000e-002	-2.953200e-002	0.0	2.232000e-002	-2.714430e-002	0.0	1.790000e-002	-2.466554e-002	0.0	1.395000e-002	-2.208250e-002	0.0	1.049000e-002	-1.940537e-002	0.0	7.520000e-003	-1.663384e-002	0.0	5.040000e-003	-1.376761e-002	0.0	3.050000e-003	-1.080613e-002	0.0	1.560000e-003	-7.771248e-003	0.0	5.600000e-004	-4.652045e-003	0.0	6.000000e-005	-1.494039e-003	0.0	0.000000e+000	0.000000e+000	0.0	6.000000e-005	1.390674e-003	0.0	5.600000e-004	4.258586e-003	0.0	1.560000e-003	7.101867e-003	0.0	3.050000e-003	9.907877e-003	0.0	5.040000e-003	1.269657e-002	0.0	7.520000e-003	1.545125e-002	0.0	1.049000e-002	1.817321e-002	0.0	1.395000e-002	2.086208e-002	0.0	1.790000e-002	2.351663e-002	0.0	2.232000e-002	2.612378e-002	0.0	2.723000e-002	2.869433e-002	0.0	3.260000e-002	3.121086e-002	0.0	3.844000e-002	3.367659e-002	0.0	4.474000e-002	3.608427e-002	0.0	5.149000e-002	3.842689e-002	0.0	5.869000e-002	4.070045e-002	0.0	6.633000e-002	4.289711e-002	0.0	7.440000e-002	4.500903e-002	0.0	8.290000e-002	4.703072e-002	0.0	9.181000e-002	4.895176e-002	0.0	1.011300e-001	5.076644e-002	0.0	1.108500e-001	5.246682e-002	0.0	1.209500e-001	5.404378e-002	0.0	1.314400e-001	5.549320e-002	0.0	1.422900e-001	5.680552e-002	0.0	1.534900e-001	5.797501e-002	0.0	1.650400e-001	5.899734e-002	0.0	1.769300e-001	5.986763e-002	0.0	1.891400e-001	6.058126e-002	0.0	2.016600e-001	6.113545e-002	0.0	2.144700e-001	6.152808e-002	0.0	2.275700e-001	6.175880e-002	0.0	2.409400e-001	6.182778e-002	0.0	2.545700e-001	6.173671e-002	0.0	2.684500e-001	6.148838e-002	0.0	2.825500e-001	6.108749e-002	0.0	2.968700e-001	6.053941e-002	0.0	3.114000e-001	5.985082e-002	0.0	3.261100e-001	5.903082e-002	0.0	3.409900e-001	5.808887e-002	0.0	3.560400e-001	5.703473e-002	0.0	3.712300e-001	5.588119e-002	0.0	3.865400e-001	5.464143e-002	0.0	4.019700e-001	5.332762e-002	0.0	4.175000e-001	5.195392e-002	0.0	4.331100e-001	5.053474e-002	0.0	4.487800e-001	4.908435e-002	0.0	4.645100e-001	4.761468e-002	0.0	4.802700e-001	4.613962e-002	0.0	4.960500e-001	4.467002e-002	0.0	5.118400e-001	4.321530e-002	0.0	5.276100e-001	4.178490e-002	0.0	5.433600e-001	4.038358e-002	0.0	5.590600e-001	3.901663e-002	0.0	5.747100e-001	3.768452e-002	0.0	5.902800e-001	3.638822e-002	0.0	6.057600e-001	3.512503e-002	0.0	6.211300e-001	3.389143e-002	0.0	6.363800e-001	3.268192e-002	0.0	6.515000e-001	3.149027e-002	0.0	6.664700e-001	3.031083e-002	0.0	6.812700e-001	2.913831e-002	0.0	6.958900e-001	2.796739e-002	0.0	7.103200e-001	2.679394e-002	0.0	7.245300e-001	2.561678e-002	0.0	7.385200e-001	2.443373e-002	0.0	7.522800e-001	2.324468e-002	0.0	7.657800e-001	2.205246e-002	0.0	7.790100e-001	2.085921e-002	0.0	7.919700e-001	1.966723e-002	0.0	8.046400e-001	1.848198e-002	0.0	8.170100e-001	1.731011e-002	0.0	8.290500e-001	1.616337e-002	0.0	8.407700e-001	1.505411e-002	0.0	8.521600e-001	1.400231e-002	0.0	8.631800e-001	1.303675e-002	0.0	8.738500e-001	1.218607e-002	0.0	8.841500e-001	1.148470e-002	0.0	8.940600e-001	1.096258e-002	0.0	9.035800e-001	1.063526e-002	0.0	9.127000e-001	1.049478e-002	0.0	9.214000e-001	1.049873e-002	0.0	9.296900e-001	1.056601e-002	0.0	9.375400e-001	1.058327e-002	0.0	9.449600e-001	1.042558e-002	0.0	9.519400e-001	9.987504e-003	0.0	9.584700e-001	9.217478e-003	0.0	9.645400e-001	8.139783e-003	0.0	9.701500e-001	6.849365e-003	0.0	9.752800e-001	5.489616e-003	0.0	9.799500e-001	4.194305e-003	0.0	9.841300e-001	3.073242e-003	0.0	9.878400e-001	2.167203e-003	0.0	9.910500e-001	1.478728e-003	0.0	9.937800e-001	9.683839e-004	0.0	9.960200e-001	5.959716e-004	0.0	9.977600e-001	3.286453e-004	0.0	9.990000e-001	1.455771e-004	0.0	9.997500e-001	3.633410e-005	0.0	1.000000e+000	0.000000e+000	0.0	1.984229e+001	2.506660e+000	0.0	1.937166e+001	4.973800e+000	0.0	1.859553e+001	7.362490e+000	0.0	1.752613e+001	9.635070e+000	0.0	1.618034e+001	1.175571e+001	0.0	1.457937e+001	1.369094e+001	0.0	1.274848e+001	1.541027e+001	0.0	1.071654e+001	1.688656e+001	0.0	8.515590e+000	1.809654e+001	0.0	6.180340e+000	1.902113e+001	0.0	3.747630e+000	1.964575e+001	0.0	1.255810e+000	1.996053e+001	0.0	-1.255810e+000	1.996053e+001	0.0	-3.747630e+000	1.964574e+001	0.0	-6.180340e+000	1.902113e+001	0.0	-8.515590e+000	1.809654e+001	0.0	-1.071654e+001	1.688656e+001	0.0	-1.274848e+001	1.541026e+001	0.0	-1.457937e+001	1.369094e+001	0.0	-1.618034e+001	1.175570e+001	0.0	-1.752613e+001	9.635070e+000	0.0	-1.859553e+001	7.362490e+000	0.0	-1.937166e+001	4.973800e+000	0.0	-1.984229e+001	2.506660e+000	0.0	-2.000000e+001	0.000000e+000	0.0	-1.984229e+001	-2.506670e+000	0.0	-1.937166e+001	-4.973800e+000	0.0	-1.859553e+001	-7.362490e+000	0.0	-1.752613e+001	-9.635080e+000	0.0	-1.618034e+001	-1.175571e+001	0.0	-1.457937e+001	-1.369094e+001	0.0	-1.274848e+001	-1.541027e+001	0.0	-1.071653e+001	-1.688656e+001	0.0	-8.515580e+000	-1.809654e+001	0.0	-6.180340e+000	-1.902113e+001	0.0	-3.747620e+000	-1.964575e+001	0.0	-1.255810e+000	-1.996053e+001	0.0	1.255810e+000	-1.996053e+001	0.0	3.747630e+000	-1.964574e+001	0.0	6.180340e+000	-1.902113e+001	0.0	8.515590e+000	-1.809654e+001	0.0	1.071654e+001	-1.688656e+001	0.0	1.274848e+001	-1.541026e+001	0.0	1.457937e+001	-1.369094e+001	0.0	1.618034e+001	-1.175570e+001	0.0	1.752614e+001	-9.635070e+000	0.0	1.859553e+001	-7.362490e+000	0.0	1.937166e+001	-4.973790e+000	0.0	1.984229e+001	-2.506660e+000	0.0	2.000000e+001	0.000000e+000	0.0	6.077562e-002	-4.782545e-002	0.0	6.599759e-001	-3.959711e-002	0.0	4.263278e-001	6.567338e-002	0.0	6.897362e-001	4.203448e-002	0.0	3.796610e-001	-6.435341e-002	0.0	9.994612e-001	-7.294427e-004	0.0	9.985423e-001	-1.326650e-003	0.0	7.731171e-001	-3.260455e-002	0.0	6.894823e-001	-3.724782e-002	0.0	-1.594546e-003	6.609212e-003	0.0	7.461496e-001	-3.378741e-002	0.0	5.837089e-001	5.151965e-002	0.0	9.927691e-001	-3.618819e-003	0.0	9.898675e-001	-4.516409e-003	0.0	5.992243e-001	5.013969e-002	0.0	7.182427e-001	-3.530942e-002	0.0	-1.697569e-003	7.314642e-004	0.0	9.864764e-001	-5.504196e-003	0.0	9.826048e-001	-6.577901e-003	0.0	-1.630716e-003	-7.132593e-003	0.0	6.449775e-001	-4.091101e-002	0.0	8.238110e-001	-3.070928e-002	0.0	7.990319e-001	-3.164965e-002	0.0	3.491862e-001	7.133655e-002	0.0	8.473096e-001	-2.958491e-002	0.0	2.476690e-001	7.414939e-002	0.0	8.694522e-001	-2.806124e-002	0.0	9.772320e-003	2.270880e-002	0.0	8.901146e-001	-2.598699e-002	0.0	7.710598e-002	-5.199369e-002	0.0	9.092003e-001	-2.332147e-002	0.0	-2.076376e-003	-3.524090e-003	0.0	9.422544e-001	-1.678731e-002	0.0	9.266083e-001	-2.017255e-002	0.0	1.779110e-002	-2.987122e-002	0.0	4.262637e-001	-6.127612e-002	0.0	8.585605e-001	-2.888251e-002	0.0	9.561037e-001	-1.345915e-002	0.0	9.782474e-001	-7.763515e-003	0.0	9.681164e-001	-1.041009e-002	0.0	1.585483e-001	-6.396844e-002	0.0	8.998630e-001	-2.472537e-002	0.0	7.597602e-001	-3.315936e-002	0.0	9.971155e-001	-2.066341e-003	0.0	5.991639e-001	-4.526879e-002	0.0	4.419556e-001	-6.007650e-002	0.0	5.366783e-001	-5.151566e-002	0.0	4.734967e-001	-5.745152e-002	0.0	5.051102e-001	-5.457384e-002	0.0	4.892943e-001	-5.604007e-002	0.0	1.251589e-001	-6.038030e-002	0.0	2.774251e-002	-3.553637e-002	0.0	3.951042e-001	-6.342022e-002	0.0	4.619953e-002	-4.323
[...]
POINT_DATA 5233

SCALARS Density float 1
LOOKUP_TABLE default
1.185659e+000	1.162175e+000	1.148027e+000	1.136856e+000	1.127779e+000	1.120277e+000	1.113438e+000	1.106836e+000	1.099773e+000	1.091660e+000	1.081867e+000	1.069912e+000	1.055448e+000	1.038360e+000	1.018870e+000	9.975502e-001	9.751638e-001	9.529240e-001	9.329722e-001	9.179874e-001	9.102192e-001	9.101989e-001	9.168212e-001	9.280214e-001	9.418156e-001	9.565296e-001	9.710545e-001	9.845995e-001	9.967421e-001	1.007286e+000	1.016126e+000	1.023241e+000	1.028700e+000	1.032499e+000	1.034773e+000	1.035556e+000	1.034986e+000	1.033153e+000	1.030189e+000	1.026213e+000	1.021355e+000	1.015735e+000	1.009473e+000	1.002683e+000	9.954859e-001	9.879777e-001	9.802686e-001	9.724305e-001	9.645455e-001	9.566275e-001	9.487340e-001	9.410371e-001	9.338386e-001	9.269931e-001	9.195144e-001	9.117095e-001	9.079615e-001	9.135217e-001	9.218159e-001	9.055350e-001	8.337847e-001	7.517313e-001	7.219443e-001	7.264429e-001	7.345087e-001	7.391698e-001	7.420299e-001	7.451984e-001	7.490403e-001	7.533298e-001	7.581732e-001	7.637752e-001	7.700632e-001	7.766698e-001	7.833971e-001	7.904152e-001	7.981078e-001	8.067137e-001	8.160738e-001	8.261286e-001	8.369758e-001	8.486956e-001	8.614999e-001	8.755398e-001	8.910970e-001	9.085595e-001	9.282334e-001	9.505604e-001	9.761737e-001	1.005559e+000	1.039425e+000	1.078312e+000	1.122039e+000	1.170000e+000	1.220251e+000	1.269907e+000	1.311162e+000	1.344238e+000	1.352513e+000	1.345046e+000	1.340548e+000	1.315194e+000	1.260461e+000	1.208782e+000	1.155984e+000	1.106526e+000	1.062507e+000	1.024115e+000	9.905411e-001	9.612184e-001	9.353433e-001	9.120509e-001	8.909036e-001	8.713898e-001	8.531771e-001	8.360521e-001	8.196891e-001	8.038207e-001	7.884104e-001	7.734424e-001	7.590187e-001	7.451670e-001	7.317128e-001	7.183426e-001	7.049610e-001	6.918183e-001	6.794177e-001	6.677590e-001	6.565689e-001	6.455234e-001	6.347473e-001	6.244932e-001	6.150701e-001	6.065102e-001	5.988284e-001	5.919235e-001	5.857150e-001	5.802290e-001	5.753441e-001	5.711130e-001	5.675065e-001	5.647216e-001	5.629985e-001	5.623084e-001	5.623744e-001	5.630458e-001	5.642317e-001	5.658536e-001	5.680660e-001	5.713637e-001	5.762604e-001	5.812458e-001	5.855131e-001	6.715157e-001	8.837531e-001	1.004468e+000	1.006413e+000	9.977828e-001	9.973065e-001	9.976315e-001	9.968045e-001	9.961346e-001	9.959357e-001	9.961226e-001	9.966738e-001	9.976817e-001	9.991335e-001	1.001074e+000	1.003496e+000	1.006465e+000	1.010015e+000	1.014175e+000	1.018976e+000	1.024329e+000	1.030031e+000	1.035668e+000	1.040593e+000	1.043920e+000	1.044487e+000	1.040906e+000	1.031714e+000	1.015543e+000	9.916603e-001	9.618558e-001	9.325737e-001	9.132680e-001	9.153228e-001	9.443817e-001	9.898712e-001	1.033004e+000	1.067752e+000	1.093870e+000	1.111371e+000	1.122264e+000	1.128900e+000	1.134531e+000	1.141100e+000	1.151316e+000	1.164480e+000	1.159567e+000	9.983369e-001	9.995882e-001	9.997465e-001	9.996006e-001	9.995194e-001	9.994118e-001	9.992858e-001	9.991301e-001	9.989607e-001	9.988548e-001	9.988117e-001	9.989097e-001	9.991087e-001	9.994562e-001	9.997409e-001	9.999672e-001	1.000093e+000	1.000171e+000	1.000217e+000	1.000238e+000	1.000250e+000	1.000254e+000	1.000257e+000	1.000264e+000	1.000271e+000	1.000281e+000	1.000301e+000	1.000327e+000	1.000364e+000	1.000418e+000	1.000479e+000	1.000578e+000	1.000673e+000	1.000834e+000	1.000982e+000	1.001162e+000	1.001347e+000	1.001414e+000	1.001424e+000	1.001305e+000	1.001173e+000	1.000990e+000	1.000821e+000	1.000656e+000	1.000515e+000	1.000334e+000	1.000181e+000	1.000243e+000	9.990782e-001	9.974954e-001	8.869761e-001	1.025692e+000	5.637946e-001	9.968927e-001	9.131171e-001	1.165123e+000	1.153461e+000	1.017456e+000	1.030966e+000	1.298227e+000	1.027506e+000	1.000700e+000	1.122395e+000	1.114905e+000	1.011044e+000	1.031820e+000	1.341907e+000	1.107817e+000	1.100653e+000	1.327939e+000	1.021669e+000	9.798082e-001	1.001433e+000	5.751371e-001	9.545110e-001	6.217727e-001	9.311996e-001	1.078034e+000	9.212972e-001	8.586636e-001	9.366410e-001	1.347559e+000	1.012129e+000	9.724562e-001	1.054079e+000	9.263870e-001	9.420321e-001	1.046885e+000	1.092872e+000	1.073594e+000	7.831176e-001	9.255436e-001	1.023201e+000	1.140767e+000	1.005283e+000	9.332914e-001	9.772786e-001	9.471092e-001	9.622511e-001	9.546559e-001	8.056444e-001	9.913345e-001	9.116949e-001	9.216095e-001	9.183465e-001	7.843079e-001	9.295495e-001	9.652192e-001	7.289994e-001	9.925861e-001	7.903096e-001	7.640801e-001	8.462991e-001	8.242498e-001	9.918383e-001	7.761380e-001	1.011359e+000	9.236596e-001	1.020821e+000	1.130889e+000	1.175034e+000	1.006940e+000	9.530830e-001	1.030402e+000	1.084000e+000	1.257126e+000	9.673836e-001	7.474199e-001	9.846557e-001	1.030338e+000	1.010189e+000	8.144645e-001	7.546172e-001	9.987495e-001	1.028837e+000	9.033644e-001	1.219249e+000	1.091127e+000	9.250196e-001	7.697183e-001	1.198342e+000	7.506508e-001	8.348778e-001	7.308792e-001	7.442569e-001	9.399417e-001	1.031992e+000	1.331254e+000	1.299918e+000	5.779161e-001	1.346002e+000	9.502169e-001	8.645788e-001	9.038643e-001	7.536410e-001	5.643324e-001	1.133881e+000	5.745603e-001	5.659242e-001	1.021537e+000	9.527426e-001	1.038574e+000	5.678061e-001	5.639122e-001	5.678601e-001	1.002677e+000	1.030232e+000	8.133584e-001	1.052530e+000	9.372132e-001	9.589075e-001	7.822861e-001	8.467573e-001	5.978150e-001	6.130373e-001	6.870975e-001	5.852415e-001	5.646484e-001	5.656650e-001	7.125816e-001	7.398783e-001	9.970807e-001	6.638240e-001	6.416389e-001	9.978104e-001	7.573369e-001	9.995509e-001	9.974690e-001	1.009002e+000	1.003341e+000	1.025894e+000	1.016655e+000	1.036425e+000	1.034745e+000	9.413160e-001	1.019102e+000	9.851632e-001	1.030589e+000	1.037684e+000	1.012575e+000	1.021147e+000	1.001231e+000	1.005931e+000	9.970301e-001	9.983129e-001	9.982450e-001	9.971284e-001	5.940284e-001	9.986848e-001	6.525768e-001	6.313671e-001	6.995129e-001	6.753352e-001	8.834960e-001	7.261991e-001	1.040465e+000	9.259976e-001	7.591148e-001	1.164428e+000	1.061283e+000	9.912629e-001	8.836416e-001	9.698005e-001	1.211662e+000	9.769969e-001	1.119465e+000	7.975327e-001	8.297305e-001	6.050500e-001	7.676882e-001	1.077423e+000	1.096153e+000	5.912294e-001	1.109464e+000	1.118938e+000	5.799437e-001	5.710595e-001	9.815591e-001	1.174473e+000	1.143314e+000	1.153064e+000	1.016846e+000	9.421058e-001	1.126517e+000	5.719015e-001	1.262360e+000	1.131810e+000	8.721485e-001	7.976913e-001	7.377336e-001	8.405378e-001	1.278269e+000	1.312278e+000	7.407334e-001	1.028063e+000	9.566075e-001	1.170094e+000	9.168383e-001	1.026684e+000	1.011769e+000	1.108800e+000	8.438988e-001	9.544427e-001	9.761098e-001	8.565587e-001	1.307578e+000	7.662050e-001	1.095676e+000	1.053125e+000	7.983147e-001	1.028392e+000	1.021112e+000	9.393124e-001	8.694189e-001	9.151516e-001	9.362066e-001	1.004615e+000	1.121213e+000	1.017461e+000	9.977853e-001	1.022329e+000	7.778390e-001	9.976140e-001	7.091240e-001	1.032017e+000	1.095972e+000	5.861923e-001	5.735177e-001	9.600646e-001	1.032997e+000	1.107371e+000	9.674577e-001	1.062287e+000	6.403849e-001	5.922197e-001	6.506645e-001	7.925185e-001	1.024351e+000	7.714563e-001	1.083771e+000	7.353259e-001	8.954467e-001	1.013800e+000	1.116486e+000	1.031791e+000	7.905893e-001	1.188381e+000	1.132959e+000	1.124560e+000	1.160740e+000	1.241861e+000	1.208629e+000	1.341099e+000	1.338935e+000	1.061717e+000	1.198306e+000	8.986223e-001	1.142544e+000	1.123875e+000	5.680276e-001	9.815882e-001	1.101517e+000	9.375916e-001	1.011530e+000	1.116098e+000	1.331131e+000	9.329249e-001	5.701785e-001	9.651918e-001	6.134791e-001	9.448250e-001	9.343004e-001	8.833764e-001	9.439263e-001	9.725523e-001	1.023746e+000	1.002667e+000	1.039199e+000	1.065440e+000	1.093879e+000	8.145149e-001	1.022206e+000	1.017669e+000	1.132593e+000	9.460217e-001	9.531630e-001	9.603805e-001	1.030873e+000	9.191347e-001	9.262108e-001	9.154046e-001	9.544483e-001	9.898115e-001	1.007116e+000	8.062818e-001	8.446138e-001	9.884189e-001	1.007092e+000	1.076175e+000	1.085560e+000	1.027550e+000	1.025536e+000	8.336371e-001	8.235983e-001	9.950082e-001	1.001263e+000	9.340088e-001	9.154605e-001	1.131882e+000	9.287426e-001	9.196011e-001	7.834942e-001	7.771719e-001	7.614320e-001	7.573713e-001	7.358599e-001	7.624508e-001	7.537953e-001	1.333043e+000	1.246564e+000	9.159489e-001	1.081205e+000	5.716227e-001	5.696149e-001	5.671182e-001	5.661169e-001	1.039564e+000	9.875408e-001	1.009081e+000	5.660121e-001	5.665764e-001	5.731235e-001	1.020260e+000	9.654969e-001	8.578903e-001	8.761671e-001	6.308079e-001	6.217609e-001	7.219365e-001	7.494245e-001	7.635797e-001	1.008187e+000	9.999995e-001	9.989541e-001	1.005550e+000	1.018427e+000	1.027750e+000	1.029537e+000	1.026140e+000	1.014711e+000	1.011253e+000	1.003285e+000	1.001465e+000	9.982086e-001	9.978284e-001	9.986331e-001	9.988103e-001	6.377673e-001	5.775693e-001	9.964098e-001	1.000402e+000	6.613763e-001	6.728152e-001	6.846223e-001	6.968347e-001	1.049245e+000	9.381209e-001	9.623576e-001	9.961805e-001	9.865744e-001	9.675166e-001	9.745967e-001	1.201990e+000	9.887200e-001	8.078373e-001	8.238457e-001	5.986450e-001	6.057504e-001	5.766483e-001	5.809985e-001	9.788501e-001	9.946624e-001	1.012396e+000	1.017111e+000	9.771864e-001	1.280979e+000	7.493080e-001	1.310712e+000	9.211158e-001	7.470696e-001	1.006401e+000	9.789779e-001	9.748744e-001	1.096720e+000	1.084949e+000	9.942505e-001	1.193405e+000	1.106920e+000	1.142374e+000	1.154867e+000	1.133263e+000	1.178769e+000	1.068892e+000	1.315181e+000	8.675223e-001	9.895277e-001	1.109836e+000	7.507922e-001	1.154496e+000	1.199779e+000	1.024531e+000	1.263006e+000	1.024293e+000	1.099559e+000	9.500933e-001	1.165902e+000	8.876855e-001	9.566700e-001	1.023955e+000	1.117543e+000	1.132372e+000	1.053124e+000	5.748183e-001	9.783859e-001	9.985215e-001	1.114698e+000	5.716684e-001	6.314007e-001	5.996184e-001	7.331634e-001	8.698704e-001	1.149249e+000	1.285516e+000	1.257796e+000	1.056718e+000	1.291523e+000	1.058810e+000	8.807701e-001	1.333599e+000	8.066267e-001	9.451704e-001	1.040166e+000	1.122346e+000	1.019353e+000	1.007426e+000	9.980152e-001	1.070563e+000	9.817250e-001	1.027971e+000	1.028497e+000	6.067511e-001	6.225260e-001	6.607858e-001	8.042024e-001	1.019890e+000	1.022235e+000	7.793958e-001	1.088739e+000	7.460092e-001	1.033604e+000	1.122750e+000	1.157536e+000	1.228322e+000	1.232523e+000	1.323735e+000	1.013176e+000	1.171000e+000	1.161199e+000	1.069415e+000	1.102631e+000	9.983386e-001	9.389023e-001	5.751672e-001	9.740475e-001	9.649592e-001	9.465144e-001	9.469240e-001	9.106181e-001	8.950942e-001	9.521623e-001	9.618512e-001	1.033829e+000	1.046953e+000	1.095276e+000	1.016989e+000	1.012115e+000	1.125087e+000	9.518572e-001	9.587466e-001	9.265539e-001	9.327799e-001	9.887699e-001	1.004661e+000	1.019593e+000	8.242347e-001	8.153525e-001	9.853778e-001	9.916079e-001	1.078895e+000	1.087389e+000	1.022915e+000	1.020423e+000	8.552763e-001	8.437137e-001	8.333114e-001	9.975041e-001	1.003100e+000	9.668067e-001	9.464476e-001	9.276648e-001	9.271664e-001	9.270713e-001	9.204610e-001	7.987773e-001	7.918161e-001	7.853937e-001	7.738139e-001	7.687726e-001	7.536712e-001	8.053996e-001	7.645976e-001	9.283977e-001	5.698138e-001	5.685372e-001	1.013060e+000	5.686534e-001	5.699624e-001	5.720315e-001	5.788775e-001	1.012993e+000	8.883252e-001	9.078727e-001	6.405824e-001	6.505853e-001	7.596252e-001	7.744996e-001	7.894654e-001	1.000259e+000	1.020450e+000	1.025436e+000	1.027454e+000	1.025324e+000	1.022560e+000	1.016090e+000	1.012994e+000	1.010068e+000	1.005173e+000	1.003173e+000	1.001603e+000	9.993374e-001	9.985644e-001	9.982043e-001	9.994910e-001	5.824520e-001	5.659365e-001	9.976925e-001	9.949287e-001	1.006699e+000	6.716309e-001	6.827482e-001	6.948525e-001	7.074155e-001	7.204361e-001	9.501100e-001	9.738328e-001	9.995405e-001	9.916597e-001	9.831155e-001	9.655758e-001	9.723335e-001	9.996971e-001	1.027116e+000	8.194275e-001	8.355138e-001	8.523073e-001	6.144089e-001	5.833419e-001	5.880468e-001	5.934153e-001	9.831137e-001	9.925488e-001	1.003282e+000	1.008120e+000	1.012733e+000	1.016566e+000	7.604564e-001	7.546346e-001	1.289652e+000	8.789666e-001	1.113634e+000	1.062097e+000	9.824876e-001	1.295866e+000	1.141107e+000	9.915295e-001	1.004665e+000	1.022063e+000	1.097146e+000	5.752039e-001	1.265599e+000	1.091323e+000	1.189098e+000	1.002845e+000	1.105914e+000	1.239885e+000	9.976969e-001	1.213743e+000	1.156872e+000	1.174284e+000	1.001900e+000	8.165382e-001	1.074225e+000	9.273040e-001	8.924821e-001	9.446854e-001	7.631708e-001	1.075602e+000	6.285077e-001	9.948072e-001	9.927623e-001	1.006560e+000	7.591876e-001	6.531709e-001	1.103729e+000	9.001524e-001	9.614545e-001	1.129634e+000	1.087259e+000	1.125380e+000	1.072850e+000	1.101440e+000	1.021047e+000	1.217919e+000	1.020522e+000	1.020440e+000	1.130588e+000	1.110766e+000	1.160120e+000	1.016793e+000	5.736628e-001	6.252982e-001	1.270231e+000	1.121427e+000	9.977546e-001	1.024306e+000	6.175109e-001	6.343590e-001	6.431415e-001	1.018285e+000	1.019415e+000	1.046962e+000	1.151933e+000	1.183388e+000	1.244738e+000	1.304441e+000	1.047410e+000	1.063568e+000	1.096611e+000	9.016046e-001	9.736720e-001	9.668283e-001	9.581279e-001	9.581589e-001	9.225102e-001	9.069513e-001	9.617797e-001	9.690718e-001	9.794923e-001	1.042209e+000	1.053403e+000	1.012289e+000	1.007233e+000	1.118014e+000	9.509469e-001	9.574780e-001	9.325939e-001	9.386435e-001	1.017625e+000	1.030133e+000	8.352040e-001	8.251618e-001	9.882687e-001	1.081296e+000	1.089195e+000	1.018000e+000	1.015404e+000	8.662376e-001	8.546923e-001	8.447694e-001	9.941423e-001	9.991044e-001	9.996915e-001	9.783205e-001	9.578335e-001	9.391851e-001	9.116989e-001	9.286102e-001	9.254878e-001	9.240415e-001	8.090771e-001	8.019657e-001	7.953282e-001	7.888432e-001	7.830374e-001	8.534390e-001	7.890597e-001	7.777498e-001	5.734474e-001	1.031151e+000	1.015735e+000	5.741920e-001	5.754426e-001	5.785290e-001	5.819349e-001	5.868035e-001	9.197830e-001	9.405825e-001	6.628248e-001	6.737757e-001	7.721924e-001	7.861065e-001	8.014967e-001	8.170216e-001	1.014859e+000	1.019636e+000	1.022834e+000	1.024479e+000	1.023458e+000	1.021766e+000	1.019042e+000	1.014150e+000	1.011271e+000	1.008879e+000	1.004532e+000	1.002810e+000	1.001335e+000	1.000215e+000	9.993075e-001	9.987432e-001	9.982220e-001	5.699263e-001	5.711578e-001	9.974967e-001	9.969298e-001	1.004992e+000	1.010047e+000	6.841472e-001	6.955949e-001	7.066758e-001	7.192368e-001	7.320063e-001	7.455338e-001	9.617982e-001	9.840373e-001	9.956009e-001	9.881433e-001	9.809321e-001	9.640686e-001	9.698381e-001	9.761538e-001	1.008934e+000	1.035211e+000	1.062120e+000	8.322165e-001	8.477907e-001	8.645867e-001	8.820192e-001	5.916991e-001	5.977383e-001	6.035084e-001	6.098982e-001	1.008641e+000	9.958351e-001	1.001765e+000	1.004305e+000	1.008209e+000	1.012520e+000	1.015154e+000	7.733415e-001	7.686288e-001	7.631033e-001	1.128458e+000	1.108497e+000	1.067751e+000	1.151955e+000	1.154622e+000	1.016588e+000	8.909780e-001	1.179859e+000	1.056404e+000	1.228276e+000	1.053232e+000	8.287539e-001	7.874451e-001	1.120124e+000	1.200780e+000	1.271475e+000	1.314685e+000	1.314413e+000	1.305737e+000	1.247452e+000	1.120734e+000	6.385122e-001	1.075919e+000	1.104647e+000	1.017373e+000	1.001212e+000	9.330834e-001	1.097420e+000	1.011864e+000	1.003460e+000	5.831615e-001	5.732391e-001	9.950922e-001	1.004325e+000	5.801972e-001	9.819181e-001	6.277485e-001	1.088955e+000	9.046766e-001	1.143120e+000	1.068327e+000	1.309362e+000	1.167398e+000	1.156805e+000	1.005146e+000	1.030838e+000	1.267966e+000	1.092948e+000	1.204685e+000	1.010816e+000	1.224059e+000	1.153520e+000	1.161135e+000	1.103039e+000	8.250730e-001	7.905882e-001	1.079113e+000	7.135904e-001	1.005106e+000	1.097786e+000	1.017045e+000	1.249466e+000	6.452012e-001	6.572278e-001	6.646609e-001	1.014615e+000	1.146947e+000	1.174156e+000	1.282352e+000	1.078584e+000	9.751429e-001	9.702865e-001	9.693077e-001	9.673117e-001	9.190451e-001	9.352124e-001	9.717891e-001	9.755680e-001	9.855676e-001	9.959208e-001	1.049411e+000	1.058943e+000	1.009336e+000	1.111162e+000	9.495422e-001	9.559047e-001	9.371510e-001	9.433871e-001	1.028977e+000	1.039189e+000	8.460365e-001	8.344407e-001	1.083625e+000	1.090885e+000	1.013436e+000	8.777953e-001	8.650766e-001	8.580971e-001	9.929251e-001	1.009722e+000	9.889162e-001	9.690224e-001	9.518973e-001	8.798238e-001	9.202715e-001	9.290709e-001	9.295395e-001	9.309005e-001	8.190046e-001	8.137138e-001	8.044723e-001	7.997999e-001	7.917700e-001	1.043860e+000	1.031471e+000	1.020054e+000	5.803878e-001	5.833781e-001	5.850176e-001	5.906651e-001	5.940278e-001	9.318056e-001	9.524285e-001	6.776463e-001	6.857705e-001	7.971272e-001	8.136698e-001	8.302160e-001	1.015868e+000	1.018874e+000	1.020425e+000	1.021572e+000	1.020865e+000	1.020398e+000	1.018195e+000	1.015285e+000	1.011925e+000	1.008237e+000	1.001240e+000	9.993386e-001	9.973067e-001	1.007212e+000	1.001536e+000	6.995792e-001	7.079475e-001	7.222171e-001	7.308832e-001	7.459745e-001	7.591547e-001	7.730762e-001	9.733756e-001	9.943804e-001	9.925316e-001	9.861019e-001	9.810508e-001	9.630352e-001	9.708934e-001	1.017030e+000	1.042263e+000	1.067065e+000	8.460807e-001	8.615499e-001	8.776229e-001	8.956686e-001	9.136120e-001	6.014862e-001	6.061272e-001	6.148854e-001	6.221659e-001	1.004675e+000	1.008509e+000	1.002183e+000	1.009505e+000	7.880493e-001	7.813729e-001	7.797723e-001	7.754161e-001	1.147715e+000	1.136383e+000	1.170742e+000	1.282428e+000	1.166466e+000	1.078484e+000	1.081808e+000	1.230821e+000	1.024249e+000	1.123788e+000	1.092293e+000	1.262678e+000	1.058471e+000	1.148446e+000	6.453050e-001	1.151481e+000	1.141582e+000	1.209038e+000	1.125687e+000	1.071231e+000	9.764117e-001	1.072591e+000	8.333448e-001	1.028089e+000	1.012735e+000	1.003550e+000	9.030230e-001	8.350647e-001	1.229992e+000	9.395246e-001	9.327193e-001	9.182528e-001	8.190085e-001	1.052638e+000	1.013519e+000	1.250759e+000	1.117685e+000	1.063610e+000	1.146838e+000	1.062749e+000	1.311535e+000	1.247614e+000	1.098835e+000	1.011952e+000	5.858740e-001	5.890388e-001	1.090170e+000	1.154210e+000	1.111412e+000	1.288929e+000	1.160877e+000	1.038536e+000	1.212465e+000	1.192252e+000	6.157232e-001	1.080783e+000	1.017543e+000	1.013465e+000	5.726092e-001	6.637483e-001	6.843045e-001	1.013524e+000	1.165207e+000	1.188117e+000	1.103947e+000	9.776866e-001	9.781771e-001	9.473295e-001	9.864200e-001	1.000315e+000	1.055430e+000	1.105262e+000	9.501238e-001	1.038200e+000	1.046759e+000	8.512651e-001	1.085444e+000	1.008779e+000	1.003781e+000	8.840666e-001	8.692734e-001	9.865812e-001	1.018752e+000	9.978713e-001	9.786552e-001	9.661823e-001	9.067526e-001	9.352725e-001	9.368311e-001	8.196064e-001	8.056528e-001	1.042535e+000	1.032931e+000	5.964229e-001	6.068574e-001	9.629071e-001	7.063058e-001	8.427195e-001	1.008975e+000	1.017109e+000	1.018597e+000	1.017585e+000	1.014913e+000	1.012110e+000	1.005369e+000	1.001980e+000	9.997290e-001	9.977164e-001	9.933990e-001	1.000234e+000	1.019022e+000	8.799009e-001	7.293627e-001	7.525600e-001	7.743760e-001	7.847022e-001	8.014001e-001	9.843649e-001	1.004391e+000	9.966280e-001	9.886985e-001	9.823144e-001	9.605550e-001	9.680267e-001	1.024665e+000	1.047643e+000	1.071097e+000	1.093874e+000	8.603652e-001	8.759207e-001	8.913860e-001	9.085810e-001	9.290411e-001	9.426805e-001	6.199316e-001	6.338811e-001	1.009956e+000	1.011080e+000	9.960219e-001	1.009142e+000	1.012571e+000	7.949831e-001	7.954708e-001	1.096886e+000	1.149090e+000	1.143724e+000	1.118387e+000	9.983349e-001	1.083903e+000	1.148355e+000	1.118870e+000	1.180778e+000	1.123094e+000	1.130229e+000	1.110719e+000	1.156833e+000	1.231341e+000	1.243605e+000	1.042109e+000	1.007742e+000	6.573458e-001	1.105988e+000	1.001787e+000	1.082611e+000	9.644843e-001	1.136416e+000	1.162216e+000	9.402989e-001	1.037164e+000	1.003940e+000	9.811861e-001	1.074147e+000	1.080667e+000	1.063072e+000	1.046035e+000	1.146680e+000	1.067228e+000	1.075469e+000	1.027869e+000	6.938263e-001	7.003579e-001	1.009970e+000	9.580829e-001	1.131589e+000	1.136742e+000	1.292094e+000	1.067334e+000	1.034460e+000	1.161363e+000	1.087048e+000	1.213841e+000	1.142504e+000	9.725018e-001	1.229071e+000	9.474384e-001	9.299449e-001	1.058668e+000	1.262790e+000	1.060305e+000	1.093208e+000	1.009763e+000	1.267621e+000	1.160868e+000	9.760425e-001	1.213928e+000	1.198084e+000	5.