# vtk DataFile Version 3.0
vtk output
ASCII
DATASET UNSTRUCTURED_GRID
POINTS 5233 float
9.997500e-001	-3.632478e-005	0.0	9.990000e-001	-1.449894e-004	0.0	9.977600e-001	-3.222102e-004	0.0	9.960200e-001	-5.613223e-004	0.0	9.937800e-001	-8.437327e-004	0.0	9.910500e-001	-1.136388e-003	0.0	9.878400e-001	-1.395969e-003	0.0	9.841300e-001	-1.579607e-003	0.0	9.799500e-001	-1.654895e-003	0.0	9.752800e-001	-1.619927e-003	0.0	9.701500e-001	-1.507946e-003	0.0	9.645400e-001	-1.380319e-003	0.0	9.584700e-001	-1.308863e-003	0.0	9.519400e-001	-1.351944e-003	0.0	9.449600e-001	-1.539278e-003	0.0	9.375400e-001	-1.869614e-003	0.0	9.296900e-001	-2.321351e-003	0.0	9.214000e-001	-2.869955e-003	0.0	9.127000e-001	-3.497433e-003	0.0	9.035800e-001	-4.203929e-003	0.0	8.940600e-001	-5.001900e-003	0.0	8.841500e-001	-5.913293e-003	0.0	8.738500e-001	-6.963008e-003	0.0	8.631800e-001	-8.170176e-003	0.0	8.521600e-001	-9.546141e-003	0.0	8.407700e-001	-1.109874e-002	0.0	8.290500e-001	-1.281942e-002	0.0	8.170100e-001	-1.469565e-002	0.0	8.046400e-001	-1.671207e-002	0.0	7.919700e-001	-1.884219e-002	0.0	7.790100e-001	-2.105924e-002	0.0	7.657800e-001	-2.333281e-002	0.0	7.522800e-001	-2.563533e-002	0.0	7.385200e-001	-2.793811e-002	0.0	7.245300e-001	-3.021098e-002	0.0	7.103200e-001	-3.242993e-002	0.0	6.958900e-001	-3.457595e-002	0.0	6.812700e-001	-3.662947e-002	0.0	6.664700e-001	-3.857834e-002	0.0	6.515000e-001	-4.041451e-002	0.0	6.363800e-001	-4.213273e-002	0.0	6.211300e-001	-4.373158e-002	0.0	6.057600e-001	-4.521375e-002	0.0	5.902800e-001	-4.658414e-002	0.0	5.747100e-001	-4.784844e-002	0.0	5.590600e-001	-4.901421e-002	0.0	5.433600e-001	-5.008791e-002	0.0	5.276100e-001	-5.107797e-002	0.0	5.118400e-001	-5.199017e-002	0.0	4.960500e-001	-5.283109e-002	0.0	4.802700e-001	-5.360438e-002	0.0	4.645100e-001	-5.431343e-002	0.0	4.487800e-001	-5.496009e-002	0.0	4.331100e-001	-5.554409e-002	0.0	4.175000e-001	-5.606507e-002	0.0	4.019700e-001	-5.652077e-002	0.0	3.865400e-001	-5.690814e-002	0.0	3.712300e-001	-5.722352e-002	0.0	3.560400e-001	-5.746320e-002	0.0	3.409900e-001	-5.762274e-002	0.0	3.261100e-001	-5.769776e-002	0.0	3.114000e-001	-5.768428e-002	0.0	2.968700e-001	-5.757839e-002	0.0	2.825500e-001	-5.737685e-002	0.0	2.684500e-001	-5.707691e-002	0.0	2.545700e-001	-5.667606e-002	0.0	2.409400e-001	-5.617323e-002	0.0	2.275700e-001	-5.556767e-002	0.0	2.144700e-001	-5.485923e-002	0.0	2.016600e-001	-5.404912e-002	0.0	1.891400e-001	-5.313797e-002	0.0	1.769300e-001	-5.212839e-002	0.0	1.650400e-001	-5.102296e-002	0.0	1.534900e-001	-4.982588e-002	0.0	1.422900e-001	-4.854105e-002	0.0	1.314400e-001	-4.717152e-002	0.0	1.209500e-001	-4.572163e-002	0.0	1.108500e-001	-4.419915e-002	0.0	1.011300e-001	-4.260633e-002	0.0	9.181000e-002	-4.095001e-002	0.0	8.290000e-002	-3.923571e-002	0.0	7.440000e-002	-3.746682e-002	0.0	6.633000e-002	-3.565069e-002	0.0	5.869000e-002	-3.379025e-002	0.0	5.149000e-002	-3.189019e-002	0.0	4.474000e-002	-2.995500e-002	0.0	3.844000e-002	-2.798570e-002	0.0	3.260000e-002	-2.598544e-002	0.0	2.723000e-002	-2.395714e-002	0.0	2.232000e-002	-2.189473e-002	0.0	1.790000e-002	-1.980804e-002	0.0	1.395000e-002	-1.768348e-002	0.0	1.049000e-002	-1.552548e-002	0.0	7.520000e-003	-1.332768e-002	0.0	5.040000e-003	-1.108122e-002	0.0	3.050000e-003	-8.773354e-003	0.0	1.560000e-003	-6.402691e-003	0.0	5.600000e-004	-3.930399e-003	0.0	6.000000e-005	-1.329026e-003	0.0	0.000000e+000	0.000000e+000	0.0	6.000000e-005	1.472263e-003	0.0	5.600000e-004	4.587061e-003	0.0	1.560000e-003	7.682697e-003	0.0	3.050000e-003	1.071301e-002	0.0	5.040000e-003	1.368598e-002	0.0	7.520000e-003	1.657705e-002	0.0	1.049000e-002	1.938477e-002	0.0	1.395000e-002	2.210829e-002	0.0	1.790000e-002	2.474755e-002	0.0	2.232000e-002	2.729238e-002	0.0	2.723000e-002	2.975716e-002	0.0	3.260000e-002	3.212994e-002	0.0	3.844000e-002	3.441936e-002	0.0	4.474000e-002	3.662465e-002	0.0	5.149000e-002	3.874582e-002	0.0	5.869000e-002	4.078585e-002	0.0	6.633000e-002	4.274430e-002	0.0	7.440000e-002	4.462072e-002	0.0	8.290000e-002	4.641646e-002	0.0	9.181000e-002	4.812817e-002	0.0	1.011300e-001	4.975614e-002	0.0	1.108500e-001	5.129804e-002	0.0	1.209500e-001	5.274975e-002	0.0	1.314400e-001	5.411089e-002	0.0	1.422900e-001	5.537516e-002	0.0	1.534900e-001	5.653885e-002	0.0	1.650400e-001	5.759870e-002	0.0	1.769300e-001	5.855001e-002	0.0	1.891400e-001	5.938726e-002	0.0	2.016600e-001	6.010587e-002	0.0	2.144700e-001	6.070093e-002	0.0	2.275700e-001	6.116879e-002	0.0	2.409400e-001	6.150535e-002	0.0	2.545700e-001	6.170753e-002	0.0	2.684500e-001	6.177294e-002	0.0	2.825500e-001	6.170021e-002	0.0	2.968700e-001	6.148909e-002	0.0	3.114000e-001	6.114032e-002	0.0	3.261100e-001	6.065656e-002	0.0	3.409900e-001	6.004154e-002	0.0	3.560400e-001	5.929974e-002	0.0	3.712300e-001	5.843858e-002	0.0	3.865400e-001	5.746673e-002	0.0	4.019700e-001	5.639305e-002	0.0	4.175000e-001	5.522906e-002	0.0	4.331100e-001	5.398771e-002	0.0	4.487800e-001	5.268330e-002	0.0	4.645100e-001	5.132944e-002	0.0	4.802700e-001	4.994310e-002	0.0	4.960500e-001	4.854014e-002	0.0	5.118400e-001	4.713662e-002	0.0	5.276100e-001	4.575025e-002	0.0	5.433600e-001	4.439557e-002	0.0	5.590600e-001	4.308865e-002	0.0	5.747100e-001	4.184149e-002	0.0	5.902800e-001	4.066645e-002	0.0	6.057600e-001	3.957158e-002	0.0	6.211300e-001	3.856244e-002	0.0	6.363800e-001	3.764026e-002	0.0	6.515000e-001	3.680234e-002	0.0	6.664700e-001	3.604226e-002	0.0	6.812700e-001	3.534927e-002	0.0	6.958900e-001	3.470806e-002	0.0	7.103200e-001	3.409986e-002	0.0	7.245300e-001	3.350397e-002	0.0	7.385200e-001	3.289672e-002	0.0	7.522800e-001	3.225435e-002	0.0	7.657800e-001	3.155494e-002	0.0	7.790100e-001	3.077796e-002	0.0	7.919700e-001	2.990559e-002	0.0	8.046400e-001	2.892544e-002	0.0	8.170100e-001	2.782926e-002	0.0	8.290500e-001	2.661558e-002	0.0	8.407700e-001	2.528322e-002	0.0	8.521600e-001	2.383582e-002	0.0	8.631800e-001	2.228346e-002	0.0	8.738500e-001	2.062948e-002	0.0	8.841500e-001	1.888385e-002	0.0	8.940600e-001	1.705979e-002	0.0	9.035800e-001	1.517259e-002	0.0	9.127000e-001	1.324911e-002	0.0	9.214000e-001	1.133267e-002	0.0	9.296900e-001	9.475932e-003	0.0	9.375400e-001	7.752937e-003	0.0	9.449600e-001	6.231002e-003	0.0	9.519400e-001	4.968036e-003	0.0	9.584700e-001	3.990591e-003	0.0	9.645400e-001	3.283044e-003	0.0	9.701500e-001	2.789355e-003	0.0	9.752800e-001	2.432332e-003	0.0	9.799500e-001	2.132925e-003	0.0	9.841300e-001	1.837471e-003	0.0	9.878400e-001	1.520458e-003	0.0	9.910500e-001	1.188929e-003	0.0	9.937800e-001	8.621706e-004	0.0	9.960200e-001	5.663163e-004	0.0	9.977600e-001	3.231218e-004	0.0	9.990000e-001	1.450717e-004	0.0	9.997500e-001	3.632608e-005	0.0	1.000000e+000	0.000000e+000	0.0	1.984229e+001	2.506660e+000	0.0	1.937166e+001	4.973800e+000	0.0	1.859553e+001	7.362490e+000	0.0	1.752613e+001	9.635070e+000	0.0	1.618034e+001	1.175571e+001	0.0	1.457937e+001	1.369094e+001	0.0	1.274848e+001	1.541027e+001	0.0	1.071654e+001	1.688656e+001	0.0	8.515590e+000	1.809654e+001	0.0	6.180340e+000	1.902113e+001	0.0	3.747630e+000	1.964575e+001	0.0	1.255810e+000	1.996053e+001	0.0	-1.255810e+000	1.996053e+001	0.0	-3.747630e+000	1.964574e+001	0.0	-6.180340e+000	1.902113e+001	0.0	-8.515590e+000	1.809654e+001	0.0	-1.071654e+001	1.688656e+001	0.0	-1.274848e+001	1.541026e+001	0.0	-1.457937e+001	1.369094e+001	0.0	-1.618034e+001	1.175570e+001	0.0	-1.752613e+001	9.635070e+000	0.0	-1.859553e+001	7.362490e+000	0.0	-1.937166e+001	4.973800e+000	0.0	-1.984229e+001	2.506660e+000	0.0	-2.000000e+001	0.000000e+000	0.0	-1.984229e+001	-2.506670e+000	0.0	-1.937166e+001	-4.973800e+000	0.0	-1.859553e+001	-7.362490e+000	0.0	-1.752613e+001	-9.635080e+000	0.0	-1.618034e+001	-1.175571e+001	0.0	-1.457937e+001	-1.369094e+001	0.0	-1.274848e+001	-1.541027e+001	0.0	-1.071653e+001	-1.688656e+001	0.0	-8.515580e+000	-1.809654e+001	0.0	-6.180340e+000	-1.902113e+001	0.0	-3.747620e+000	-1.964575e+001	0.0	-1.255810e+000	-1.996053e+001	0.0	1.255810e+000	-1.996053e+001	0.0	3.747630e+000	-1.964574e+001	0.0	6.180340e+000	-1.902113e+001	0.0	8.515590e+000	-1.809654e+001	0.0	1.071654e+001	-1.688656e+001	0.0	1.274848e+001	-1.541026e+001	0.0	1.457937e+001	-1.369094e+001	0.0	1.618034e+001	-1.175570e+001	0.0	1.752614e+001	-9.635070e+000	0.0	1.859553e+001	-7.362490e+000	0.0	1.937166e+001	-4.973790e+000	0.0	1.984229e+001	-2.506660e+000	0.0	2.000000e+001	0.000000e+000	0.0	6.087714e-002	-4.181930e-002	0.0	6.605038e-001	-5.288897e-002	0.0	4.261804e-001	6.895218e-002	0.0	6.895931e-001	4.861139e-002	0.0	3.792346e-001	-7.106634e-002	0.0	9.994536e-001	-6.932891e-004	0.0	9.985401e-001	-1.263835e-003	0.0	7.739248e-001	-3.432630e-002	0.0	6.901738e-001	-4.869845e-002	0.0	-1.538696e-003	7.056751e-003	0.0	7.469935e-001	-3.926106e-002	0.0	5.835817e-001	5.585494e-002	0.0	9.927338e-001	-3.346459e-003	0.0	9.897984e-001	-4.048706e-003	0.0	5.990891e-001	5.464089e-002	0.0	7.190453e-001	-4.410728e-002	0.0	-1.600779e-003	9.087431e-004	0.0	9.863577e-001	-4.717113e-003	0.0	9.824245e-001	-5.316973e-003	0.0	-1.391331e-003	-6.029708e-003	0.0	6.454124e-001	-5.480803e-002	0.0	8.243030e-001	-2.507478e-002	0.0	7.997179e-001	-2.953694e-002	0.0	3.490102e-001	7.338043e-002	0.0	8.475694e-001	-2.112179e-002	0.0	2.475363e-001	7.401036e-002	0.0	8.694668e-001	-1.774056e-002	0.0	9.774487e-003	2.379637e-002	0.0	8.899001e-001	-1.491939e-002	0.0	7.712978e-002	-4.621868e-002	0.0	9.088043e-001	-1.255652e-002	0.0	-1.949084e-003	-2.969043e-003	0.0	9.417096e-001	-8.879582e-003	0.0	9.260995e-001	-1.054407e-002	0.0	1.810516e-002	-2.500896e-002	0.0	4.258721e-001	-7.005990e-002	0.0	8.586976e-001	-1.935545e-002	0.0	9.555981e-001	-7.632650e-003	0.0	9.779946e-001	-5.851684e-003	0.0	9.677184e-001	-6.721535e-003	0.0	1.582797e-001	-6.098733e-002	0.0	8.995501e-001	-1.368907e-002	0.0	7.605966e-001	-3.679061e-002	0.0	9.971118e-001	-1.964980e-003	0.0	5.993128e-001	-5.981633e-002	0.0	4.415802e-001	-6.955818e-002	0.0	5.365131e-001	-6.484395e-002	0.0	4.731645e-001	-6.831684e-002	0.0	5.048436e-001	-6.675396e-002	0.0	4.889911e-001	-6.757594e-002	0.0	1.249911e-001	-5.606243e-002	0.0	2.801397e-002	-3.002571e-002	0.0	3.946873e-001	-7.081734e-002	0.0	4.637631e-002	-3.723
[...]
POINT_DATA 5233

SCALARS Density float 1
LOOKUP_TABLE default
1.166819e+000	1.136940e+000	1.113358e+000	1.090112e+000	1.067195e+000	1.047076e+000	1.034202e+000	1.032541e+000	1.042072e+000	1.059004e+000	1.078228e+000	1.094960e+000	1.106384e+000	1.112031e+000	1.112933e+000	1.110870e+000	1.107703e+000	1.104894e+000	1.103162e+000	1.102471e+000	1.102259e+000	1.101819e+000	1.100505e+000	1.097922e+000	1.093812e+000	1.088127e+000	1.080896e+000	1.072194e+000	1.062174e+000	1.050994e+000	1.038837e+000	1.025931e+000	1.012442e+000	9.986570e-001	9.848338e-001	9.712645e-001	9.582820e-001	9.460858e-001	9.349737e-001	9.250990e-001	9.166378e-001	9.096410e-001	9.041010e-001	8.998960e-001	8.968346e-001	8.946786e-001	8.931605e-001	8.920188e-001	8.909741e-001	8.897943e-001	8.882947e-001	8.864283e-001	8.841617e-001	8.814498e-001	8.782089e-001	8.744477e-001	8.702380e-001	8.656565e-001	8.605790e-001	8.547696e-001	8.482173e-001	8.414684e-001	8.355565e-001	8.314116e-001	8.295280e-001	8.298259e-001	8.320041e-001	8.356307e-001	8.403482e-001	8.458393e-001	8.519141e-001	8.584917e-001	8.656126e-001	8.732883e-001	8.814691e-001	8.900029e-001	8.988424e-001	9.080208e-001	9.175240e-001	9.273153e-001	9.374349e-001	9.478681e-001	9.586652e-001	9.698624e-001	9.815482e-001	9.938844e-001	1.007020e+000	1.021226e+000	1.036917e+000	1.054489e+000	1.074684e+000	1.098462e+000	1.126734e+000	1.160834e+000	1.201266e+000	1.246590e+000	1.291510e+000	1.335750e+000	1.350927e+000	1.348030e+000	1.346789e+000	1.323227e+000	1.268301e+000	1.211345e+000	1.149290e+000	1.089117e+000	1.034227e+000	9.860132e-001	9.444625e-001	9.094023e-001	8.799614e-001	8.549880e-001	8.338496e-001	8.157871e-001	8.003032e-001	7.870461e-001	7.754484e-001	7.649478e-001	7.552185e-001	7.460363e-001	7.374067e-001	7.294262e-001	7.220023e-001	7.146928e-001	7.070825e-001	6.991516e-001	6.912958e-001	6.835732e-001	6.757965e-001	6.677156e-001	6.594650e-001	6.512653e-001	6.433515e-001	6.357411e-001	6.284583e-001	6.214329e-001	6.146347e-001	6.081162e-001	6.018131e-001	5.958156e-001	5.901812e-001	5.851751e-001	5.810299e-001	5.777325e-001	5.750877e-001	5.730600e-001	5.716852e-001	5.712249e-001	5.717076e-001	5.734905e-001	5.764014e-001	5.803601e-001	5.854795e-001	5.919863e-001	6.010081e-001	6.077395e-001	6.120769e-001	6.775313e-001	8.616735e-001	9.966209e-001	1.003566e+000	9.919482e-001	9.860348e-001	9.818483e-001	9.753302e-001	9.675987e-001	9.598399e-001	9.524850e-001	9.458439e-001	9.404090e-001	9.366828e-001	9.350001e-001	9.356093e-001	9.386373e-001	9.439112e-001	9.513987e-001	9.609741e-001	9.727523e-001	9.867802e-001	1.003156e+000	1.021591e+000	1.041370e+000	1.061199e+000	1.079565e+000	1.094838e+000	1.105539e+000	1.110587e+000	1.109633e+000	1.103295e+000	1.093490e+000	1.083325e+000	1.076121e+000	1.074343e+000	1.078793e+000	1.088311e+000	1.101329e+000	1.116385e+000	1.133886e+000	1.154693e+000	1.145653e+000	9.983599e-001	9.995196e-001	9.996257e-001	9.994317e-001	9.992970e-001	9.991271e-001	9.989298e-001	9.986889e-001	9.984299e-001	9.982600e-001	9.981785e-001	9.982968e-001	9.985603e-001	9.990432e-001	9.994449e-001	9.997736e-001	9.999631e-001	1.000086e+000	1.000167e+000	1.000208e+000	1.000234e+000	1.000247e+000	1.000258e+000	1.000271e+000	1.000282e+000	1.000297e+000	1.000324e+000	1.000357e+000	1.000403e+000	1.000473e+000	1.000552e+000	1.000684e+000	1.000815e+000	1.001041e+000	1.001258e+000	1.001534e+000	1.001833e+000	1.001965e+000	1.002011e+000	1.001860e+000	1.001684e+000	1.001428e+000	1.001191e+000	1.000959e+000	1.000755e+000	1.000512e+000	1.000315e+000	1.000333e+000	9.991596e-001	9.975814e-001	9.755568e-001	9.351792e-001	5.776548e-001	9.870317e-001	8.715198e-001	1.144226e+000	1.125825e+000	1.032073e+000	9.566887e-001	1.302065e+000	1.007135e+000	5.978394e-001	1.066617e+000	1.052477e+000	6.022903e-001	9.813284e-001	1.344817e+000	1.045443e+000	1.047291e+000	1.319640e+000	9.261050e-001	1.072947e+000	1.054475e+000	6.003358e-001	1.086439e+000	6.491537e-001	1.094586e+000	1.051581e+000	1.098190e+000	9.527310e-001	1.099973e+000	1.342760e+000	1.106582e+000	1.103144e+000	1.086881e+000	8.828745e-001	1.091168e+000	1.102461e+000	1.056541e+000	1.083678e+000	8.772757e-001	1.099084e+000	1.019834e+000	1.104729e+000	9.068472e-001	8.857662e-001	8.963048e-001	8.903450e-001	8.936587e-001	8.921553e-001	9.028907e-001	1.046745e+000	8.756725e-001	1.000816e+000	8.794880e-001	8.492904e-001	8.618473e-001	1.029981e+000	8.382801e-001	1.105198e+000	8.854021e-001	8.561393e-001	9.420156e-001	9.217001e-001	9.000471e-001	8.696885e-001	9.119354e-001	1.096835e+000	1.065513e+000	1.084921e+000	1.172724e+000	9.655928e-001	1.101285e+000	1.106071e+000	1.069917e+000	1.258703e+000	1.080354e+000	8.369355e-001	8.979177e-001	9.942020e-001	1.043686e+000	9.121178e-001	8.447195e-001	9.029503e-001	9.454303e-001	9.878178e-001	1.209517e+000	1.111449e+000	8.669995e-001	8.626711e-001	1.182936e+000	8.402256e-001	9.316804e-001	8.430646e-001	8.352764e-001	8.882308e-001	9.687138e-001	1.336580e+000	1.287533e+000	5.793201e-001	1.345681e+000	9.000083e-001	8.150689e-001	8.512119e-001	7.379080e-001	5.808396e-001	1.110067e+000	5.759274e-001	5.721818e-001	1.093327e+000	1.100532e+000	9.857842e-001	5.722890e-001	5.750666e-001	5.891762e-001	1.050386e+000	1.015972e+000	7.762223e-001	1.086910e+000	1.098389e+000	1.080915e+000	7.555408e-001	8.005858e-001	6.269668e-001	6.415181e-001	6.978136e-001	6.132042e-001	5.732301e-001	5.846804e-001	7.140175e-001	7.299813e-001	7.364367e-001	6.818263e-001	6.652699e-001	1.008800e+000	5.914703e-001	9.663295e-001	9.797951e-001	9.444573e-001	9.535925e-001	9.483953e-001	9.421400e-001	1.000040e+000	9.631124e-001	1.091738e+000	1.033061e+000	1.098485e+000	9.547746e-001	9.734783e-001	9.422829e-001	9.441949e-001	9.597278e-001	9.483425e-001	9.845607e-001	9.732342e-001	9.814010e-001	9.942934e-001	5.839364e-001	6.170193e-001	6.736040e-001	6.571151e-001	7.058697e-001	6.898964e-001	8.317693e-001	7.221388e-001	1.006000e+000	8.738243e-001	8.501167e-001	1.154532e+000	1.094974e+000	1.064273e+000	8.558469e-001	8.949745e-001	1.208721e+000	9.303546e-001	1.101469e+000	7.655244e-001	7.877853e-001	6.341194e-001	7.463406e-001	1.081563e+000	1.079348e+000	6.199974e-001	1.081503e+000	1.087902e+000	6.066886e-001	5.944403e-001	1.066753e+000	1.168240e+000	1.124927e+000	1.139237e+000	9.183409e-001	1.014789e+000	1.097781e+000	5.734352e-001	1.249156e+000	1.139987e+000	9.638875e-001	8.939879e-001	8.356266e-001	8.014799e-001	1.278576e+000	1.314383e+000	8.434271e-001	9.670946e-001	1.097259e+000	1.172350e+000	5.907082e-001	9.560526e-001	1.036900e+000	1.059571e+000	8.577102e-001	1.084047e+000	1.072563e+000	9.468803e-001	1.299463e+000	8.553527e-001	1.116663e+000	1.093342e+000	8.901139e-001	9.787195e-001	9.363346e-001	8.902630e-001	9.577660e-001	8.774033e-001	1.094798e+000	1.047110e+000	1.102758e+000	9.802678e-001	9.971870e-001	9.538176e-001	7.569514e-001	9.874703e-001	7.139070e-001	9.754369e-001	1.083610e+000	6.127654e-001	5.751427e-001	1.086391e+000	9.860772e-001	1.087448e+000	1.090748e+000	1.084366e+000	6.644710e-001	6.196942e-001	6.725823e-001	7.666142e-001	9.457268e-001	8.612910e-001	1.058645e+000	7.305731e-001	8.484109e-001	1.090469e+000	1.094315e+000	9.983810e-001	8.821109e-001	1.181887e+000	1.114702e+000	1.103512e+000	1.148744e+000	1.239909e+000	1.204152e+000	1.338127e+000	1.339272e+000	1.093116e+000	1.188556e+000	9.809872e-001	1.113623e+000	1.081272e+000	5.855129e-001	9.013970e-001	1.056523e+000	1.091097e+000	5.932575e-001	1.068131e+000	1.325401e+000	8.876457e-001	5.899520e-001	1.078904e+000	6.412915e-001	1.088102e+000	1.093233e+000	9.691027e-001	1.096029e+000	1.098581e+000	1.100362e+000	1.053556e+000	1.098096e+000	1.086003e+000	1.059669e+000	9.075632e-001	1.014456e+000	1.025917e+000	1.096746e+000	8.925813e-001	8.946638e-001	8.964455e-001	1.072334e+000	8.811980e-001	8.846500e-001	8.635684e-001	1.021156e+000	1.099883e+000	1.100708e+000	8.986259e-001	9.364314e-001	9.036108e-001	9.149680e-001	1.076763e+000	1.067199e+000	9.905654e-001	1.002621e+000	9.264458e-001	9.168184e-001	9.064891e-001	9.102083e-001	1.006910e+000	9.935820e-001	1.142915e+000	8.687582e-001	8.732942e-001	8.747133e-001	8.677666e-001	8.502054e-001	8.460610e-001	8.467032e-001	8.517857e-001	8.433160e-001	1.335202e+000	1.237988e+000	8.683457e-001	1.082658e+000	5.766309e-001	5.743921e-001	5.749730e-001	5.762554e-001	1.087464e+000	1.091923e+000	1.041296e+000	5.785984e-001	5.816514e-001	5.949967e-001	1.026512e+000	1.078784e+000	8.153161e-001	8.308491e-001	6.565893e-001	6.488021e-001	7.221321e-001	7.393639e-001	7.480447e-001	9.521908e-001	9.717195e-001	9.777896e-001	9.558801e-001	9.505661e-001	1.011961e+000	9.663850e-001	9.592385e-001	9.492412e-001	9.498400e-001	9.606411e-001	9.660834e-001	9.836206e-001	9.870581e-001	1.003328e+000	8.816079e-001	5.846082e-001	5.796315e-001	6.445661e-001	5.962815e-001	6.807132e-001	6.890889e-001	6.974384e-001	7.057980e-001	1.017730e+000	8.912278e-001	9.174553e-001	1.056583e+000	1.065118e+000	8.980425e-001	8.995989e-001	1.195713e+000	9.470350e-001	7.772501e-001	7.888579e-001	6.266718e-001	6.338901e-001	6.003946e-001	6.063257e-001	1.068287e+000	1.055507e+000	9.208848e-001	9.280136e-001	1.036584e+000	1.271022e+000	8.422952e-001	1.304554e+000	8.834765e-001	8.516272e-001	1.040964e+000	9.053087e-001	1.094034e+000	1.086858e+000	1.083973e+000	1.084399e+000	1.185221e+000	1.092165e+000	1.127009e+000	1.144660e+000	1.104874e+000	1.169275e+000	1.098062e+000	1.315647e+000	9.523345e-001	1.095027e+000	1.071583e+000	5.851517e-001	1.130585e+000	1.198917e+000	9.774015e-001	1.256303e+000	9.882518e-001	1.120056e+000	1.085065e+000	1.170825e+000	8.659044e-001	1.081545e+000	9.667511e-001	1.081235e+000	1.144528e+000	1.083608e+000	5.772417e-001	1.075992e+000	1.002188e+000	1.099049e+000	5.775802e-001	6.569073e-001	6.266112e-001	7.316896e-001	8.304572e-001	1.136468e+000	1.278786e+000	1.255576e+000	1.028275e+000	1.291267e+000	1.086003e+000	9.632520e-001	1.332612e+000	8.953651e-001	8.951205e-001	1.077964e+000	1.104419e+000	9.596479e-001	9.590525e-001	9.860361e-001	1.083047e+000	1.081399e+000	9.975902e-001	9.869223e-001	6.339797e-001	6.490492e-001	6.808704e-001	7.788863e-001	9.471387e-001	9.566468e-001	8.669267e-001	1.065521e+000	7.400160e-001	1.084713e+000	1.106761e+000	1.144753e+000	1.223717e+000	1.227790e+000	1.319147e+000	1.059421e+000	1.154507e+000	1.142307e+000	1.079790e+000	1.065990e+000	5.903177e-001	8.926826e-001	5.956950e-001	1.071730e+000	1.077107e+000	1.087756e+000	1.089870e+000	9.866909e-001	9.747126e-001	1.091440e+000	1.092851e+000	1.093934e+000	1.090839e+000	1.064707e+000	1.020993e+000	1.031268e+000	1.093254e+000	8.974038e-001	8.995467e-001	8.869623e-001	8.899848e-001	1.042672e+000	1.095659e+000	1.095411e+000	9.127909e-001	9.038293e-001	9.076646e-001	9.105455e-001	1.073154e+000	1.067584e+000	9.993340e-001	1.010287e+000	9.418495e-001	9.316835e-001	9.220447e-001	9.142063e-001	9.187079e-001	1.027404e+000	1.012995e+000	9.993858e-001	8.710622e-001	8.756409e-001	8.797000e-001	8.876292e-001	8.802906e-001	8.733755e-001	8.612002e-001	8.563026e-001	8.553552e-001	8.603762e-001	8.525900e-001	8.854576e-001	5.781995e-001	5.801693e-001	1.085283e+000	5.827638e-001	5.863295e-001	5.905679e-001	6.012459e-001	1.034392e+000	8.468533e-001	8.651806e-001	6.647135e-001	6.728596e-001	7.489627e-001	7.589299e-001	7.689016e-001	9.759179e-001	1.021706e+000	1.009188e+000	9.777543e-001	9.699341e-001	9.641213e-001	9.569393e-001	9.562762e-001	9.568795e-001	9.624423e-001	9.662718e-001	9.711409e-001	9.815185e-001	9.858845e-001	9.861359e-001	9.814913e-001	5.811062e-001	5.788351e-001	7.325699e-001	6.026638e-001	5.836763e-001	6.890788e-001	6.972085e-001	7.058192e-001	7.145126e-001	7.233220e-001	9.080567e-001	9.337939e-001	1.049867e+000	1.058107e+000	1.065319e+000	9.014427e-001	9.033164e-001	9.626887e-001	9.939755e-001	7.898781e-001	8.022257e-001	8.156989e-001	6.414840e-001	6.073342e-001	6.134057e-001	6.197831e-001	1.068198e+000	1.058302e+000	1.046815e+000	9.242804e-001	9.308464e-001	9.385487e-001	8.503043e-001	8.499480e-001	1.283858e+000	9.579665e-001	1.101041e+000	1.081688e+000	9.113126e-001	1.293999e+000	1.116645e+000	1.090276e+000	1.090753e+000	1.063919e+000	1.089447e+000	5.840000e-001	1.260247e+000	1.069940e+000	1.190962e+000	1.076715e+000	1.094728e+000	1.235573e+000	9.983892e-001	1.207279e+000	1.147547e+000	1.158893e+000	1.044375e+000	9.018265e-001	1.101190e+000	8.900166e-001	9.689755e-001	8.981822e-001	8.611558e-001	1.083005e+000	5.842437e-001	1.072555e+000	1.066672e+000	9.651018e-001	7.516202e-001	6.750118e-001	1.074832e+000	8.624087e-001	1.078882e+000	1.114980e+000	1.085494e+000	1.099422e+000	1.076401e+000	1.121300e+000	9.765302e-001	1.215968e+000	9.870596e-001	9.968571e-001	1.143519e+000	1.081525e+000	1.166950e+000	9.640054e-001	5.812693e-001	6.507891e-001	1.267894e+000	1.104227e+000	1.000032e+000	9.980325e-001	6.433615e-001	6.589513e-001	6.666397e-001	9.573519e-001	9.674221e-001	1.081068e+000	1.138720e+000	1.173887e+000	1.240318e+000	1.299648e+000	1.081857e+000	1.080727e+000	1.071167e+000	5.828019e-001	1.070436e+000	1.075158e+000	1.082197e+000	1.084456e+000	9.922462e-001	9.803292e-001	1.086486e+000	1.088015e+000	1.089293e+000	1.087816e+000	1.084727e+000	1.026309e+000	1.035187e+000	1.090098e+000	9.005844e-001	9.029630e-001	8.929366e-001	8.956896e-001	1.090827e+000	1.089837e+000	9.187836e-001	9.095858e-001	9.151856e-001	1.072658e+000	1.070578e+000	1.006903e+000	1.017756e+000	9.474890e-001	9.375097e-001	9.281077e-001	9.177987e-001	9.231455e-001	1.048163e+000	1.032892e+000	1.018254e+000	1.004739e+000	8.743418e-001	8.788526e-001	8.828075e-001	8.864746e-001	8.942232e-001	8.869829e-001	8.800407e-001	8.738456e-001	8.683336e-001	8.695699e-001	8.648464e-001	8.638855e-001	5.861036e-001	1.080491e+000	1.079224e+000	5.894935e-001	5.931081e-001	5.980157e-001	6.030926e-001	6.094085e-001	8.814169e-001	9.023722e-001	6.828520e-001	6.914005e-001	7.604839e-001	7.703056e-001	7.813692e-001	7.925838e-001	1.029363e+000	1.018634e+000	1.007804e+000	9.886154e-001	9.810217e-001	9.742108e-001	9.694860e-001	9.628335e-001	9.628125e-001	9.621714e-001	9.671282e-001	9.710788e-001	9.742540e-001	9.783325e-001	9.824611e-001	9.872946e-001	9.901647e-001	5.817764e-001	5.810945e-001	8.432025e-001	6.370972e-001	5.952536e-001	5.784528e-001	6.992525e-001	7.076468e-001	7.155226e-001	7.243189e-001	7.330648e-001	7.423086e-001	9.244470e-001	9.486100e-001	1.051288e+000	1.059167e+000	1.065075e+000	9.052169e-001	9.065097e-001	9.096062e-001	9.762869e-001	1.005901e+000	1.036578e+000	8.038311e-001	8.161954e-001	8.304471e-001	8.457795e-001	6.155842e-001	6.226023e-001	6.291318e-001	6.358428e-001	1.040108e+000	1.059063e+000	1.050219e+000	9.273321e-001	9.345069e-001	9.405976e-001	9.494955e-001	8.605503e-001	8.588765e-001	8.589953e-001	1.141518e+000	1.097626e+000	1.077588e+000	1.140712e+000	1.162483e+000	9.990477e-001	9.640530e-001	1.183441e+000	1.078891e+000	1.225871e+000	1.084495e+000	9.097095e-001	7.741418e-001	1.103961e+000	1.193160e+000	1.268419e+000	1.312144e+000	1.312618e+000	1.303423e+000	1.243651e+000	1.096485e+000	6.620172e-001	1.075333e+000	1.081903e+000	1.085778e+000	1.041479e+000	8.965989e-001	1.090697e+000	1.035129e+000	1.058884e+000	5.861238e-001	5.885909e-001	9.547766e-001	9.701372e-001	5.934082e-001	9.171198e-001	6.522552e-001	1.086634e+000	9.749313e-001	1.130395e+000	1.080761e+000	1.305872e+000	1.149755e+000	1.136698e+000	1.086578e+000	1.068266e+000	1.263147e+000	1.073445e+000	1.204802e+000	1.069373e+000	1.218358e+000	1.140923e+000	1.146098e+000	1.121757e+000	8.732024e-001	8.707118e-001	1.083238e+000	5.832679e-001	1.064787e+000	1.077229e+000	9.809593e-001	1.245437e+000	6.680549e-001	6.782846e-001	6.844825e-001	9.631780e-001	1.133922e+000	1.164052e+000	1.277321e+000	1.103267e+000	1.069277e+000	1.073242e+000	1.075759e+000	1.079460e+000	9.861601e-001	9.982265e-001	1.080977e+000	1.083605e+000	1.083982e+000	1.085688e+000	1.082665e+000	1.080225e+000	1.026736e+000	1.087932e+000	9.033837e-001	9.064737e-001	8.983546e-001	9.015376e-001	1.085829e+000	1.084572e+000	9.246960e-001	9.153994e-001	1.074138e+000	1.074657e+000	1.014317e+000	9.533089e-001	9.429338e-001	9.358128e-001	9.243515e-001	1.052895e+000	1.037905e+000	1.023482e+000	1.010721e+000	8.782537e-001	8.817938e-001	8.864358e-001	8.893363e-001	8.933956e-001	9.006521e-001	8.949304e-001	8.864294e-001	8.819575e-001	8.751763e-001	1.077228e+000	1.075384e+000	1.072886e+000	5.960682e-001	6.018579e-001	6.053018e-001	6.124641e-001	6.168901e-001	8.975770e-001	9.186194e-001	6.949333e-001	7.012144e-001	7.808889e-001	7.940590e-001	8.068598e-001	1.025708e+000	1.016131e+000	1.007263e+000	9.979948e-001	9.907494e-001	9.828284e-001	9.776161e-001	9.705501e-001	9.678618e-001	9.671393e-001	9.740329e-001	9.809286e-001	1.003736e+000	6.404067e-001	5.879440e-001	7.117608e-001	7.177656e-001	7.282174e-001	7.340816e-001	7.449792e-001	7.540759e-001	7.639038e-001	9.406504e-001	9.632633e-001	1.052974e+000	1.059709e+000	1.063675e+000	9.091057e-001	9.118216e-001	9.883425e-001	1.016465e+000	1.044310e+000	8.192246e-001	8.318702e-001	8.460487e-001	8.628546e-001	8.798066e-001	6.251913e-001	6.304559e-001	6.393833e-001	6.468300e-001	1.052109e+000	1.043504e+000	9.342226e-001	9.472538e-001	8.725205e-001	8.680668e-001	8.682046e-001	8.673344e-001	1.124388e+000	1.121629e+000	1.175469e+000	1.279741e+000	1.149915e+000	1.075796e+000	1.083483e+000	1.225625e+000	1.066682e+000	1.101291e+000	1.078538e+000	1.258139e+000	1.086573e+000	1.156911e+000	6.675014e-001	1.140261e+000	1.128991e+000	1.202385e+000	1.138494e+000	1.076229e+000	9.197767e-001	1.080315e+000	8.799924e-001	1.081416e+000	1.081915e+000	9.464934e-001	9.698768e-001	9.123124e-001	1.227485e+000	9.031663e-001	9.929268e-001	9.815885e-001	8.008665e-001	1.075062e+000	1.033915e+000	1.246431e+000	1.102624e+000	1.077384e+000	1.135056e+000	1.077494e+000	1.309105e+000	1.243778e+000	1.082021e+000	1.008204e+000	6.000691e-001	6.070806e-001	1.087236e+000	1.139544e+000	1.100436e+000	1.284182e+000	1.142560e+000	1.071734e+000	1.211638e+000	1.193867e+000	5.916972e-001	1.103393e+000	1.063020e+000	1.057605e+000	5.943138e-001	6.835154e-001	7.004334e-001	9.928966e-001	1.154910e+000	1.179825e+000	1.121334e+000	1.069109e+000	1.074442e+000	1.003964e+000	1.078644e+000	1.080514e+000	1.078793e+000	1.086706e+000	9.077660e-001	1.081225e+000	1.080122e+000	9.266569e-001	1.076464e+000	1.020887e+000	1.032952e+000	9.549938e-001	9.416281e-001	9.262768e-001	1.057048e+000	1.041623e+000	1.027747e+000	1.018174e+000	8.872507e-001	8.943695e-001	8.999769e-001	8.979295e-001	8.860968e-001	1.072661e+000	1.069994e+000	6.175785e-001	6.299269e-001	9.334168e-001	7.175975e-001	8.207321e-001	9.711328e-001	1.017868e+000	1.001733e+000	9.878470e-001	9.791338e-001	9.736213e-001	9.713503e-001	9.729840e-001	9.745323e-001	9.938668e-001	1.010530e+000	7.909388e-001	5.959106e-001	5.798529e-001	7.347321e-001	7.514511e-001	7.672772e-001	7.743495e-001	7.872760e-001	9.559470e-001	9.774178e-001	1.045315e+000	1.055732e+000	1.062903e+000	9.123922e-001	9.155776e-001	9.996345e-001	1.024988e+000	1.050947e+000	1.076224e+000	8.354368e-001	8.484731e-001	8.624017e-001	8.790071e-001	8.990429e-001	9.121383e-001	6.434935e-001	6.569383e-001	1.052957e+000	1.045760e+000	9.351085e-001	9.604268e-001	9.763029e-001	8.783245e-001	8.761731e-001	1.090863e+000	1.128260e+000	1.121238e+000	1.105839e+000	1.039605e+000	1.083788e+000	1.136237e+000	1.097709e+000	1.183418e+000	1.135238e+000	1.107531e+000	1.091459e+000	1.146681e+000	1.226239e+000	1.239756e+000	1.067897e+000	1.015282e+000	6.773430e-001	1.096781e+000	1.075304e+000	1.103139e+000	9.381496e-001	1.124488e+000	1.167570e+000	9.066645e-001	1.077671e+000	9.588853e-001	9.284368e-001	1.076075e+000	1.076948e+000	1.088006e+000	1.074924e+000	1.135031e+000	1.076800e+000	1.079920e+000	1.061198e+000	7.081257e-001	5.931849e-001	9.880062e-001	1.009178e+000	1.117846e+000	1.123445e+000	1.288471e+000	1.075901e+000	1.064588e+000	1.144880e+000	1.078794e+000	1.207888e+000	1.151093e+000	9.228048e-001	1.226274e+000	1.000640e+000	9.871548e-001	1.073838e+000	1.258894e+000	1.076243e+000	1.081514e+000	1.002587e+000	1.263141e+000	1.143190e+000	1.022421e+000	1.212565e+000	1.198477e+000	6.