# vtk DataFile Version 3.0
vtk output
ASCII
DATASET UNSTRUCTURED_GRID
POINTS 5233 float
9.997500e-001	-3.632323e-005	0.0	9.990000e-001	-1.448920e-004	0.0	9.977600e-001	-3.211516e-004	0.0	9.960200e-001	-5.556921e-004	0.0	9.937800e-001	-8.238621e-004	0.0	9.910500e-001	-1.083366e-003	0.0	9.878400e-001	-1.281515e-003	0.0	9.841300e-001	-1.371668e-003	0.0	9.799500e-001	-1.333926e-003	0.0	9.752800e-001	-1.200199e-003	0.0	9.701500e-001	-1.061767e-003	0.0	9.645400e-001	-1.051675e-003	0.0	9.584700e-001	-1.310707e-003	0.0	9.519400e-001	-1.944526e-003	0.0	9.449600e-001	-2.994362e-003	0.0	9.375400e-001	-4.432216e-003	0.0	9.296900e-001	-6.179493e-003	0.0	9.214000e-001	-8.141681e-003	0.0	9.127000e-001	-1.022125e-002	0.0	9.035800e-001	-1.235266e-002	0.0	8.940600e-001	-1.449006e-002	0.0	8.841500e-001	-1.661212e-002	0.0	8.738500e-001	-1.871335e-002	0.0	8.631800e-001	-2.078993e-002	0.0	8.521600e-001	-2.283902e-002	0.0	8.407700e-001	-2.486311e-002	0.0	8.290500e-001	-2.685156e-002	0.0	8.170100e-001	-2.879808e-002	0.0	8.046400e-001	-3.069934e-002	0.0	7.919700e-001	-3.254692e-002	0.0	7.790100e-001	-3.433771e-002	0.0	7.657800e-001	-3.606965e-002	0.0	7.522800e-001	-3.774569e-002	0.0	7.385200e-001	-3.936938e-002	0.0	7.245300e-001	-4.094358e-002	0.0	7.103200e-001	-4.247449e-002	0.0	6.958900e-001	-4.396955e-002	0.0	6.812700e-001	-4.543283e-002	0.0	6.664700e-001	-4.686979e-002	0.0	6.515000e-001	-4.828475e-002	0.0	6.363800e-001	-4.967978e-002	0.0	6.211300e-001	-5.105556e-002	0.0	6.057600e-001	-5.241220e-002	0.0	5.902800e-001	-5.374835e-002	0.0	5.747100e-001	-5.506046e-002	0.0	5.590600e-001	-5.634463e-002	0.0	5.433600e-001	-5.759427e-002	0.0	5.276100e-001	-5.880439e-002	0.0	5.118400e-001	-5.996692e-002	0.0	4.960500e-001	-6.107556e-002	0.0	4.802700e-001	-6.212149e-002	0.0	4.645100e-001	-6.309720e-002	0.0	4.487800e-001	-6.399510e-002	0.0	4.331100e-001	-6.480672e-002	0.0	4.175000e-001	-6.552559e-002	0.0	4.019700e-001	-6.614467e-002	0.0	3.865400e-001	-6.665771e-002	0.0	3.712300e-001	-6.705938e-002	0.0	3.560400e-001	-6.734574e-002	0.0	3.409900e-001	-6.751318e-002	0.0	3.261100e-001	-6.755928e-002	0.0	3.114000e-001	-6.748288e-002	0.0	2.968700e-001	-6.728349e-002	0.0	2.825500e-001	-6.696196e-002	0.0	2.684500e-001	-6.651982e-002	0.0	2.545700e-001	-6.595878e-002	0.0	2.409400e-001	-6.528232e-002	0.0	2.275700e-001	-6.449374e-002	0.0	2.144700e-001	-6.359659e-002	0.0	2.016600e-001	-6.259536e-002	0.0	1.891400e-001	-6.149306e-002	0.0	1.769300e-001	-6.029423e-002	0.0	1.650400e-001	-5.900246e-002	0.0	1.534900e-001	-5.762230e-002	0.0	1.422900e-001	-5.615701e-002	0.0	1.314400e-001	-5.460801e-002	0.0	1.209500e-001	-5.297745e-002	0.0	1.108500e-001	-5.127064e-002	0.0	1.011300e-001	-4.948605e-002	0.0	9.181000e-002	-4.762696e-002	0.0	8.290000e-002	-4.569494e-002	0.0	7.440000e-002	-4.368912e-002	0.0	6.633000e-002	-4.161335e-002	0.0	5.869000e-002	-3.946689e-002	0.0	5.149000e-002	-3.725178e-002	0.0	4.474000e-002	-3.497083e-002	0.0	3.844000e-002	-3.262403e-002	0.0	3.260000e-002	-3.021551e-002	0.0	2.723000e-002	-2.775097e-002	0.0	2.232000e-002	-2.522735e-002	0.0	1.790000e-002	-2.266340e-002	0.0	1.395000e-002	-2.005178e-002	0.0	1.049000e-002	-1.741010e-002	0.0	7.520000e-003	-1.474565e-002	0.0	5.040000e-003	-1.206570e-002	0.0	3.050000e-003	-9.376129e-003	0.0	1.560000e-003	-6.698725e-003	0.0	5.600000e-004	-4.015778e-003	0.0	6.000000e-005	-1.325365e-003	0.0	0.000000e+000	0.000000e+000	0.0	6.000000e-005	1.439304e-003	0.0	5.600000e-004	4.463540e-003	0.0	1.560000e-003	7.476596e-003	0.0	3.050000e-003	1.044253e-002	0.0	5.040000e-003	1.337167e-002	0.0	7.520000e-003	1.624034e-002	0.0	1.049000e-002	1.904668e-002	0.0	1.395000e-002	2.178910e-002	0.0	1.790000e-002	2.446672e-002	0.0	2.232000e-002	2.706830e-002	0.0	2.723000e-002	2.960777e-002	0.0	3.260000e-002	3.207218e-002	0.0	3.844000e-002	3.446995e-002	0.0	4.474000e-002	3.680010e-002	0.0	5.149000e-002	3.906260e-002	0.0	5.869000e-002	4.126092e-002	0.0	6.633000e-002	4.339522e-002	0.0	7.440000e-002	4.546595e-002	0.0	8.290000e-002	4.747593e-002	0.0	9.181000e-002	4.942308e-002	0.0	1.011300e-001	5.130977e-002	0.0	1.108500e-001	5.313572e-002	0.0	1.209500e-001	5.489876e-002	0.0	1.314400e-001	5.660149e-002	0.0	1.422900e-001	5.823938e-002	0.0	1.534900e-001	5.981100e-002	0.0	1.650400e-001	6.131560e-002	0.0	1.769300e-001	6.275030e-002	0.0	1.891400e-001	6.411055e-002	0.0	2.016600e-001	6.539251e-002	0.0	2.144700e-001	6.659076e-002	0.0	2.275700e-001	6.770120e-002	0.0	2.409400e-001	6.871727e-002	0.0	2.545700e-001	6.963273e-002	0.0	2.684500e-001	7.044077e-002	0.0	2.825500e-001	7.113312e-002	0.0	2.968700e-001	7.170285e-002	0.0	3.114000e-001	7.214202e-002	0.0	3.261100e-001	7.244214e-002	0.0	3.409900e-001	7.259553e-002	0.0	3.560400e-001	7.259454e-002	0.0	3.712300e-001	7.243187e-002	0.0	3.865400e-001	7.210132e-002	0.0	4.019700e-001	7.159711e-002	0.0	4.175000e-001	7.091509e-002	0.0	4.331100e-001	7.005282e-002	0.0	4.487800e-001	6.900996e-002	0.0	4.645100e-001	6.778684e-002	0.0	4.802700e-001	6.638833e-002	0.0	4.960500e-001	6.482046e-002	0.0	5.118400e-001	6.309185e-002	0.0	5.276100e-001	6.121629e-002	0.0	5.433600e-001	5.920706e-002	0.0	5.590600e-001	5.708392e-002	0.0	5.747100e-001	5.486522e-002	0.0	5.902800e-001	5.257568e-002	0.0	6.057600e-001	5.023881e-002	0.0	6.211300e-001	4.788049e-002	0.0	6.363800e-001	4.552514e-002	0.0	6.515000e-001	4.319623e-002	0.0	6.664700e-001	4.091685e-002	0.0	6.812700e-001	3.870705e-002	0.0	6.958900e-001	3.658140e-002	0.0	7.103200e-001	3.454974e-002	0.0	7.245300e-001	3.261932e-002	0.0	7.385200e-001	3.078766e-002	0.0	7.522800e-001	2.904850e-002	0.0	7.657800e-001	2.739342e-002	0.0	7.790100e-001	2.580807e-002	0.0	7.919700e-001	2.427543e-002	0.0	8.046400e-001	2.278139e-002	0.0	8.170100e-001	2.131362e-002	0.0	8.290500e-001	1.986760e-002	0.0	8.407700e-001	1.844159e-002	0.0	8.521600e-001	1.704516e-002	0.0	8.631800e-001	1.570084e-002	0.0	8.738500e-001	1.443168e-002	0.0	8.841500e-001	1.327012e-002	0.0	8.940600e-001	1.224732e-002	0.0	9.035800e-001	1.138366e-002	0.0	9.127000e-001	1.068396e-002	0.0	9.214000e-001	1.012977e-002	0.0	9.296900e-001	9.673996e-003	0.0	9.375400e-001	9.249414e-003	0.0	9.449600e-001	8.776717e-003	0.0	9.519400e-001	8.187128e-003	0.0	9.584700e-001	7.442133e-003	0.0	9.645400e-001	6.547225e-003	0.0	9.701500e-001	5.549462e-003	0.0	9.752800e-001	4.526879e-003	0.0	9.799500e-001	3.552792e-003	0.0	9.841300e-001	2.691879e-003	0.0	9.878400e-001	1.968810e-003	0.0	9.910500e-001	1.390206e-003	0.0	9.937800e-001	9.360353e-004	0.0	9.960200e-001	5.869577e-004	0.0	9.977600e-001	3.269686e-004	0.0	9.990000e-001	1.454238e-004	0.0	9.997500e-001	3.633167e-005	0.0	1.000000e+000	0.000000e+000	0.0	1.984229e+001	2.506660e+000	0.0	1.937166e+001	4.973800e+000	0.0	1.859553e+001	7.362490e+000	0.0	1.752613e+001	9.635070e+000	0.0	1.618034e+001	1.175571e+001	0.0	1.457937e+001	1.369094e+001	0.0	1.274848e+001	1.541027e+001	0.0	1.071654e+001	1.688656e+001	0.0	8.515590e+000	1.809654e+001	0.0	6.180340e+000	1.902113e+001	0.0	3.747630e+000	1.964575e+001	0.0	1.255810e+000	1.996053e+001	0.0	-1.255810e+000	1.996053e+001	0.0	-3.747630e+000	1.964574e+001	0.0	-6.180340e+000	1.902113e+001	0.0	-8.515590e+000	1.809654e+001	0.0	-1.071654e+001	1.688656e+001	0.0	-1.274848e+001	1.541026e+001	0.0	-1.457937e+001	1.369094e+001	0.0	-1.618034e+001	1.175570e+001	0.0	-1.752613e+001	9.635070e+000	0.0	-1.859553e+001	7.362490e+000	0.0	-1.937166e+001	4.973800e+000	0.0	-1.984229e+001	2.506660e+000	0.0	-2.000000e+001	0.000000e+000	0.0	-1.984229e+001	-2.506670e+000	0.0	-1.937166e+001	-4.973800e+000	0.0	-1.859553e+001	-7.362490e+000	0.0	-1.752613e+001	-9.635080e+000	0.0	-1.618034e+001	-1.175571e+001	0.0	-1.457937e+001	-1.369094e+001	0.0	-1.274848e+001	-1.541027e+001	0.0	-1.071653e+001	-1.688656e+001	0.0	-8.515580e+000	-1.809654e+001	0.0	-6.180340e+000	-1.902113e+001	0.0	-3.747620e+000	-1.964575e+001	0.0	-1.255810e+000	-1.996053e+001	0.0	1.255810e+000	-1.996053e+001	0.0	3.747630e+000	-1.964574e+001	0.0	6.180340e+000	-1.902113e+001	0.0	8.515590e+000	-1.809654e+001	0.0	1.071654e+001	-1.688656e+001	0.0	1.274848e+001	-1.541026e+001	0.0	1.457937e+001	-1.369094e+001	0.0	1.618034e+001	-1.175570e+001	0.0	1.752614e+001	-9.635070e+000	0.0	1.859553e+001	-7.362490e+000	0.0	1.937166e+001	-4.973790e+000	0.0	1.984229e+001	-2.506660e+000	0.0	2.000000e+001	0.000000e+000	0.0	6.057878e-002	-4.754619e-002	0.0	6.603896e-001	-6.125093e-002	0.0	4.260549e-001	8.444524e-002	0.0	6.902740e-001	5.126553e-002	0.0	3.792402e-001	-8.079144e-002	0.0	9.994602e-001	-7.081168e-004	0.0	9.985451e-001	-1.287259e-003	0.0	7.740134e-001	-4.707188e-002	0.0	6.900531e-001	-5.801008e-002	0.0	-1.583500e-003	6.922667e-003	0.0	7.469745e-001	-5.095573e-002	0.0	5.841463e-001	6.791429e-002	0.0	9.927335e-001	-3.355275e-003	0.0	9.897962e-001	-4.027401e-003	0.0	5.997060e-001	6.557037e-002	0.0	7.189556e-001	-5.458663e-002	0.0	-1.642964e-003	8.682036e-004	0.0	9.863555e-001	-4.649753e-003	0.0	9.824255e-001	-5.196178e-003	0.0	-1.518251e-003	-6.321782e-003	0.0	6.453125e-001	-6.281207e-002	0.0	8.246662e-001	-3.855375e-002	0.0	7.999413e-001	-4.294010e-002	0.0	3.486651e-001	8.612975e-002	0.0	8.480546e-001	-3.398077e-002	0.0	2.471228e-001	8.160667e-002	0.0	8.700411e-001	-2.925696e-002	0.0	9.737895e-003	2.354885e-002	0.0	8.905107e-001	-2.444177e-002	0.0	7.685060e-002	-5.249068e-002	0.0	9.093832e-001	-1.962470e-002	0.0	-2.011784e-003	-3.098661e-003	0.0	9.420411e-001	-1.110322e-002	0.0	9.265779e-001	-1.503093e-002	0.0	1.780056e-002	-2.803097e-002	0.0	4.259190e-001	-7.938717e-002	0.0	8.592327e-001	-3.163173e-002	0.0	9.557785e-001	-8.307707e-003	0.0	9.780067e-001	-5.691515e-003	0.0	9.677862e-001	-6.682432e-003	0.0	1.580790e-001	-6.889062e-002	0.0	9.001539e-001	-2.202417e-002	0.0	7.606271e-001	-4.904597e-002	0.0	9.971153e-001	-1.993182e-003	0.0	5.992790e-001	-6.727122e-002	0.0	4.416375e-001	-7.869205e-002	0.0	5.365631e-001	-7.261950e-002	0.0	4.732347e-001	-7.700162e-002	0.0	5.049127e-001	-7.495884e-002	0.0	4.890628e-001	-7.602022e-002	0.0	1.247634e-001	-6.340335e-002	0.0	2.769465e-002	-3.393616e-002	0.0	3.947080e-001	-8.044337e-002	0.0	4.606229e-002	-4.231
[...]
POINT_DATA 5233

SCALARS Density float 1
LOOKUP_TABLE default
1.166176e+000	1.136942e+000	1.116190e+000	1.095748e+000	1.076937e+000	1.063792e+000	1.061522e+000	1.072275e+000	1.093222e+000	1.118470e+000	1.141654e+000	1.157960e+000	1.165490e+000	1.164292e+000	1.155415e+000	1.140576e+000	1.121821e+000	1.101318e+000	1.081007e+000	1.062394e+000	1.046133e+000	1.032150e+000	1.019913e+000	1.008918e+000	9.987178e-001	9.891082e-001	9.800649e-001	9.717074e-001	9.641892e-001	9.576654e-001	9.522446e-001	9.479047e-001	9.445543e-001	9.420417e-001	9.402187e-001	9.388834e-001	9.378372e-001	9.369013e-001	9.358764e-001	9.347013e-001	9.334126e-001	9.323753e-001	9.315970e-001	9.303779e-001	9.280812e-001	9.287098e-001	9.390528e-001	9.500365e-001	9.224154e-001	8.120604e-001	7.162213e-001	6.979686e-001	7.096942e-001	7.173961e-001	7.203546e-001	7.228435e-001	7.267646e-001	7.317947e-001	7.374552e-001	7.435815e-001	7.501803e-001	7.571870e-001	7.645109e-001	7.720823e-001	7.798249e-001	7.877127e-001	7.957275e-001	8.037977e-001	8.117914e-001	8.195982e-001	8.271978e-001	8.347317e-001	8.423874e-001	8.502466e-001	8.582609e-001	8.663320e-001	8.745340e-001	8.830676e-001	8.920436e-001	9.015571e-001	9.117841e-001	9.228418e-001	9.349250e-001	9.481901e-001	9.628460e-001	9.791587e-001	9.973174e-001	1.017614e+000	1.040399e+000	1.065806e+000	1.094154e+000	1.125696e+000	1.160227e+000	1.197571e+000	1.236795e+000	1.276487e+000	1.311290e+000	1.342673e+000	1.351908e+000	1.346178e+000	1.343242e+000	1.319065e+000	1.265589e+000	1.212462e+000	1.155674e+000	1.101246e+000	1.052042e+000	1.009042e+000	9.720354e-001	9.407901e-001	9.145351e-001	8.922972e-001	8.735537e-001	8.576623e-001	8.441648e-001	8.327132e-001	8.228222e-001	8.140893e-001	8.063551e-001	7.994840e-001	7.934160e-001	7.879703e-001	7.828048e-001	7.776160e-001	7.723782e-001	7.672918e-001	7.624576e-001	7.575906e-001	7.523634e-001	7.466796e-001	7.407070e-001	7.345315e-001	7.281294e-001	7.213429e-001	7.140893e-001	7.062663e-001	6.978540e-001	6.888746e-001	6.792965e-001	6.692569e-001	6.589352e-001	6.485730e-001	6.381855e-001	6.276256e-001	6.167546e-001	6.057515e-001	5.947817e-001	5.842111e-001	5.741466e-001	5.649975e-001	5.568130e-001	5.494654e-001	5.430317e-001	5.371015e-001	5.329324e-001	5.305227e-001	5.306699e-001	5.312732e-001	5.473006e-001	6.794616e-001	9.312025e-001	1.014186e+000	1.010577e+000	1.007469e+000	1.010933e+000	1.012631e+000	1.013172e+000	1.013509e+000	1.013675e+000	1.013913e+000	1.014506e+000	1.015746e+000	1.017853e+000	1.020918e+000	1.024883e+000	1.029454e+000	1.034142e+000	1.038295e+000	1.041139e+000	1.041858e+000	1.039726e+000	1.034287e+000	1.025635e+000	1.014921e+000	1.004617e+000	9.980174e-001	9.984624e-001	1.007465e+000	1.023367e+000	1.042039e+000	1.059711e+000	1.074449e+000	1.085694e+000	1.094037e+000	1.100468e+000	1.106895e+000	1.114200e+000	1.124637e+000	1.135614e+000	1.134901e+000	9.982630e-001	9.996103e-001	9.997812e-001	9.996490e-001	9.995847e-001	9.994965e-001	9.993904e-001	9.992569e-001	9.991101e-001	9.990213e-001	9.989925e-001	9.990938e-001	9.992886e-001	9.996131e-001	9.998740e-001	1.000075e+000	1.000182e+000	1.000244e+000	1.000276e+000	1.000289e+000	1.000293e+000	1.000292e+000	1.000291e+000	1.000296e+000	1.000300e+000	1.000309e+000	1.000328e+000	1.000352e+000	1.000388e+000	1.000439e+000	1.000497e+000	1.000587e+000	1.000673e+000	1.000813e+000	1.000934e+000	1.001072e+000	1.001206e+000	1.001238e+000	1.001230e+000	1.001121e+000	1.001007e+000	1.000852e+000	1.000707e+000	1.000565e+000	1.000444e+000	1.000277e+000	1.000138e+000	1.000218e+000	9.989636e-001	9.973120e-001	9.562291e-001	9.373032e-001	6.220200e-001	1.006929e+000	7.354424e-001	1.143057e+000	1.128016e+000	9.542725e-001	9.398374e-001	1.299938e+000	9.469953e-001	5.358197e-001	1.081314e+000	1.075001e+000	5.336826e-001	9.426107e-001	1.343016e+000	1.077459e+000	1.088554e+000	1.327670e+000	9.358963e-001	9.801746e-001	9.653284e-001	6.737378e-001	9.979282e-001	7.324321e-001	1.018219e+000	1.068627e+000	1.042406e+000	9.299956e-001	1.072741e+000	1.345592e+000	1.137194e+000	1.107457e+000	1.102502e+000	7.243744e-001	1.007725e+000	1.149735e+000	1.105101e+000	1.137462e+000	8.545881e-001	1.056751e+000	9.502045e-001	1.110043e+000	9.329059e-001	7.195635e-001	9.510110e-001	7.011255e-001	8.842597e-001	7.425833e-001	8.797888e-001	1.049681e+000	7.304392e-001	9.879621e-001	7.267041e-001	7.607747e-001	7.472284e-001	1.026942e+000	7.756396e-001	1.123738e+000	8.628273e-001	8.312172e-001	9.185097e-001	8.979293e-001	9.291883e-001	8.466062e-001	9.337730e-001	1.029680e+000	1.074813e+000	1.094106e+000	1.200046e+000	9.914363e-001	1.089965e+000	1.146278e+000	1.122745e+000	1.258743e+000	9.887415e-001	7.992643e-001	9.343531e-001	9.445017e-001	9.592956e-001	8.886202e-001	8.154668e-001	9.310331e-001	9.386321e-001	9.713137e-001	1.235661e+000	1.132735e+000	7.410962e-001	8.388773e-001	1.181620e+000	8.073683e-001	9.078699e-001	7.680879e-001	7.912483e-001	7.086911e-001	9.411147e-001	1.333277e+000	1.303033e+000	5.541735e-001	1.345635e+000	9.327915e-001	8.576399e-001	8.894080e-001	7.953903e-001	6.327889e-001	1.108396e+000	5.619509e-001	5.896280e-001	1.038092e+000	1.013283e+000	1.037330e+000	5.797376e-001	6.110763e-001	6.535579e-001	1.028974e+000	1.037658e+000	8.243242e-001	1.052798e+000	1.008198e+000	1.014431e+000	8.081559e-001	8.450297e-001	7.104703e-001	7.256110e-001	7.677415e-001	6.930962e-001	6.002509e-001	6.433208e-001	7.781584e-001	7.895560e-001	5.295405e-001	7.570114e-001	7.451066e-001	8.196028e-001	5.406452e-001	1.011782e+000	1.007817e+000	1.014905e+000	1.013447e+000	1.023623e+000	1.017944e+000	1.038500e+000	1.031149e+000	1.009092e+000	1.034469e+000	1.024000e+000	1.027299e+000	1.034678e+000	1.016131e+000	1.020445e+000	1.012726e+000	1.014098e+000	1.003293e+000	1.010559e+000	5.630529e-001	1.014258e+000	5.469261e-001	5.293901e-001	7.511697e-001	7.389070e-001	7.728563e-001	7.625519e-001	8.722735e-001	7.837933e-001	1.027635e+000	9.094550e-001	8.234349e-001	1.162115e+000	1.146806e+000	9.723198e-001	7.538025e-001	9.574300e-001	1.212008e+000	9.599128e-001	1.113745e+000	8.157332e-001	8.340155e-001	7.183033e-001	8.014720e-001	1.066193e+000	1.077429e+000	7.020649e-001	1.086560e+000	1.094100e+000	6.836467e-001	6.636856e-001	1.021802e+000	1.145241e+000	1.117583e+000	1.126860e+000	9.345932e-001	1.006437e+000	1.101080e+000	5.704453e-001	1.271021e+000	1.165458e+000	9.425082e-001	8.712412e-001	7.833769e-001	8.460626e-001	1.278871e+000	1.313011e+000	7.878711e-001	9.433633e-001	1.080069e+000	1.193944e+000	5.463742e-001	9.417964e-001	9.614308e-001	1.085397e+000	7.654326e-001	1.007010e+000	9.890161e-001	9.255166e-001	1.309155e+000	8.279882e-001	1.133265e+000	1.134928e+000	8.680725e-001	9.450485e-001	9.387117e-001	7.196712e-001	9.372943e-001	7.402757e-001	1.051908e+000	9.670218e-001	1.115409e+000	1.004555e+000	9.597953e-001	1.022652e+000	8.105852e-001	1.005455e+000	7.794407e-001	1.031619e+000	1.078958e+000	6.886480e-001	5.775596e-001	1.017018e+000	1.033998e+000	1.086896e+000	1.019703e+000	1.059146e+000	7.441199e-001	6.980054e-001	7.504391e-001	8.179393e-001	9.403356e-001	8.359909e-001	1.075276e+000	7.907939e-001	8.869524e-001	1.036295e+000	1.094125e+000	1.035387e+000	8.597010e-001	1.163648e+000	1.108798e+000	1.101136e+000	1.157500e+000	1.242116e+000	1.225438e+000	1.340132e+000	1.338985e+000	1.105302e+000	1.178914e+000	9.638602e-001	1.117870e+000	1.093870e+000	6.388057e-001	9.405461e-001	1.089874e+000	1.027627e+000	5.426700e-001	1.086738e+000	1.330364e+000	7.283286e-001	6.492704e-001	9.977115e-001	7.231700e-001	1.016937e+000	1.039212e+000	9.500155e-001	1.065593e+000	1.094686e+000	1.129354e+000	1.055609e+000	1.134403e+000	1.130770e+000	1.099420e+000	8.856383e-001	9.528284e-001	9.567396e-001	1.104830e+000	7.061130e-001	7.230136e-001	8.250708e-001	1.079533e+000	7.355726e-001	7.319519e-001	7.585279e-001	1.013790e+000	1.108499e+000	1.120418e+000	8.767482e-001	9.145683e-001	9.327500e-001	9.350704e-001	1.122406e+000	1.111190e+000	9.470795e-001	9.496725e-001	9.043968e-001	8.947955e-001	9.328638e-001	9.341480e-001	9.956540e-001	9.790638e-001	1.162817e+000	7.520285e-001	7.459360e-001	8.517129e-001	8.438767e-001	8.198870e-001	8.117679e-001	7.801777e-001	7.726595e-001	8.036878e-001	1.333817e+000	1.256815e+000	9.045550e-001	1.069735e+000	5.684968e-001	5.869338e-001	5.969024e-001	6.069662e-001	1.047704e+000	1.026453e+000	1.030798e+000	6.175646e-001	6.281499e-001	6.595903e-001	1.033917e+000	1.018121e+000	8.579516e-001	8.715158e-001	7.375410e-001	7.305494e-001	7.849699e-001	7.971524e-001	8.037581e-001	1.014992e+000	1.010247e+000	1.008908e+000	1.013935e+000	1.020057e+000	1.035446e+000	1.028690e+000	1.025578e+000	1.017968e+000	1.016321e+000	1.012821e+000	1.011534e+000	1.004504e+000	9.986361e-001	6.400902e-001	5.382165e-001	5.527819e-001	5.600758e-001	5.248452e-001	5.382134e-001	7.564705e-001	7.624224e-001	7.682360e-001	7.739517e-001	1.038280e+000	9.248437e-001	9.482215e-001	9.735473e-001	9.809346e-001	9.380465e-001	9.548976e-001	1.200858e+000	9.747181e-001	8.261721e-001	8.354963e-001	7.068627e-001	7.152608e-001	6.695087e-001	6.791769e-001	1.021791e+000	1.026466e+000	9.358120e-001	9.371748e-001	1.033691e+000	1.286011e+000	7.957257e-001	1.310984e+000	7.459513e-001	7.930788e-001	9.694060e-001	9.462461e-001	1.084546e+000	1.080526e+000	1.072874e+000	1.029845e+000	1.191560e+000	1.087931e+000	1.117059e+000	1.128092e+000	1.111547e+000	1.157197e+000	1.107966e+000	1.315659e+000	9.329725e-001	1.096367e+000	1.091704e+000	5.607387e-001	1.132082e+000	1.216186e+000	9.476687e-001	1.269500e+000	9.498957e-001	1.133375e+000	1.025796e+000	1.188129e+000	7.708006e-001	1.015926e+000	9.457654e-001	1.095807e+000	1.160459e+000	1.055098e+000	5.853328e-001	1.023523e+000	8.107782e-001	1.094062e+000	5.953621e-001	7.361559e-001	7.036313e-001	7.927650e-001	8.710617e-001	1.124023e+000	1.288775e+000	1.257724e+000	1.047611e+000	1.291774e+000	1.122219e+000	9.449096e-001	1.333356e+000	8.737932e-001	7.189606e-001	1.083877e+000	1.117006e+000	1.021908e+000	1.014921e+000	1.015605e+000	1.064405e+000	1.025263e+000	1.032956e+000	1.031468e+000	7.124017e-001	7.286419e-001	7.564291e-001	8.284034e-001	9.421491e-001	9.438951e-001	8.412740e-001	1.081447e+000	7.986690e-001	1.045722e+000	1.100685e+000	1.154089e+000	1.227598e+000	1.243498e+000	1.322661e+000	1.061099e+000	1.152325e+000	1.140773e+000	1.117863e+000	1.092047e+000	5.555470e-001	7.306288e-001	6.558558e-001	9.978626e-001	1.006623e+000	1.036337e+000	1.047682e+000	9.716786e-001	9.578015e-001	1.059565e+000	1.072081e+000	1.120989e+000	1.123355e+000	1.096249e+000	9.595838e-001	9.641447e-001	1.103247e+000	7.153299e-001	7.721082e-001	7.412464e-001	7.371023e-001	1.040271e+000	1.106961e+000	1.115327e+000	8.919604e-001	8.827075e-001	9.364116e-001	9.345498e-001	1.111086e+000	1.103285e+000	9.525404e-001	9.557620e-001	9.218205e-001	9.112251e-001	9.013469e-001	9.352596e-001	9.364884e-001	1.021223e+000	1.003375e+000	9.867980e-001	7.640012e-001	7.574994e-001	7.514173e-001	8.655075e-001	8.574455e-001	8.493896e-001	8.331370e-001	8.249962e-001	7.853952e-001	7.779711e-001	8.168727e-001	9.194834e-001	6.047903e-001	6.148208e-001	1.036943e+000	6.248632e-001	6.352238e-001	6.454557e-001	6.660730e-001	1.031543e+000	8.853552e-001	9.015034e-001	7.431870e-001	7.500005e-001	8.050721e-001	8.125181e-001	8.203917e-001	1.010450e+000	1.033096e+000	1.033567e+000	1.029326e+000	1.026870e+000	1.024371e+000	1.019730e+000	1.017870e+000	1.016312e+000	1.013680e+000	1.012497e+000	1.011270e+000	1.007682e+000	1.000604e+000	1.005278e+000	5.596922e-001	5.678621e-001	5.766223e-001	5.219366e-001	5.440361e-001	5.470220e-001	7.626572e-001	7.685808e-001	7.745795e-001	7.806242e-001	7.867982e-001	9.395444e-001	9.625005e-001	9.754623e-001	9.822935e-001	9.897142e-001	8.964466e-001	9.500220e-001	9.884154e-001	1.016607e+000	8.371508e-001	8.471476e-001	8.583913e-001	7.207771e-001	6.762254e-001	6.857712e-001	6.948310e-001	1.024199e+000	1.026409e+000	1.029139e+000	9.372250e-001	9.386242e-001	9.402512e-001	8.088386e-001	8.008883e-001	1.291401e+000	9.404950e-001	1.093964e+000	1.060246e+000	9.440010e-001	1.295804e+000	1.120814e+000	1.086482e+000	1.095692e+000	1.065279e+000	1.081612e+000	6.149314e-001	1.270299e+000	1.085188e+000	1.205214e+000	1.033216e+000	1.087959e+000	1.239312e+000	6.449446e-001	1.212534e+000	1.129996e+000	1.156913e+000	9.772454e-001	8.807573e-001	1.109198e+000	7.530423e-001	9.526285e-001	7.331409e-001	7.996217e-001	1.067852e+000	5.789544e-001	1.029851e+000	1.028346e+000	1.014231e+000	8.080688e-001	7.502087e-001	1.094956e+000	8.986588e-001	1.024958e+000	1.106792e+000	1.075019e+000	1.107780e+000	1.108203e+000	1.131950e+000	9.500222e-001	1.229504e+000	9.529870e-001	9.550823e-001	1.156273e+000	1.097004e+000	1.180934e+000	1.021033e+000	6.032858e-001	7.275392e-001	1.270136e+000	1.116674e+000	9.182753e-001	1.030742e+000	7.195317e-001	7.355561e-001	7.429025e-001	9.458822e-001	9.484227e-001	1.052429e+000	1.148527e+000	1.181214e+000	1.252413e+000	1.304555e+000	1.086631e+000	1.111664e+000	1.095837e+000	5.710304e-001	1.007044e+000	1.015654e+000	1.034592e+000	1.044605e+000	9.791912e-001	9.654430e-001	1.055028e+000	1.065747e+000	1.076308e+000	1.112302e+000	1.113205e+000	9.663727e-001	9.722501e-001	1.101512e+000	7.254379e-001	7.518817e-001	7.475770e-001	7.417924e-001	1.103494e+000	1.108944e+000	8.990104e-001	8.891803e-001	9.390249e-001	1.103621e+000	1.099059e+000	9.587780e-001	9.630303e-001	9.291471e-001	9.185689e-001	9.087839e-001	9.359742e-001	9.369808e-001	1.046267e+000	1.027759e+000	1.010059e+000	9.938811e-001	7.777417e-001	7.709124e-001	7.646407e-001	7.585346e-001	8.725201e-001	8.642736e-001	8.559536e-001	8.476970e-001	8.395269e-001	7.847049e-001	7.921209e-001	8.313735e-001	6.245785e-001	1.044989e+000	1.038369e+000	6.345234e-001	6.440520e-001	6.542443e-001	6.638924e-001	6.741285e-001	9.153629e-001	9.339475e-001	7.569451e-001	7.637687e-001	8.146104e-001	8.217925e-001	8.304163e-001	8.395972e-001	1.031517e+000	1.031917e+000	1.031753e+000	1.029308e+000	1.027361e+000	1.025369e+000	1.022768e+000	1.019200e+000	1.017106e+000	1.015869e+000	1.013037e+000	1.011098e+000	1.009520e+000	1.007616e+000	1.005457e+000	1.007432e+000	1.012404e+000	5.958358e-001	5.845074e-001	5.582441e-001	5.333617e-001	5.515078e-001	5.628787e-001	7.700098e-001	7.762419e-001	7.819795e-001	7.880659e-001	7.943371e-001	8.010626e-001	9.536921e-001	9.752364e-001	9.841968e-001	9.915824e-001	9.989512e-001	8.512296e-001	9.327626e-001	9.495136e-001	1.000098e+000	1.026881e+000	1.054729e+000	8.489947e-001	8.591626e-001	8.710223e-001	8.841477e-001	6.838330e-001	6.937323e-001	7.027951e-001	7.111263e-001	1.030510e+000	1.028352e+000	1.029288e+000	9.381185e-001	9.401488e-001	9.418117e-001	9.443034e-001	8.233158e-001	8.152706e-001	8.074376e-001	1.151866e+000	1.090224e+000	1.103496e+000	1.126068e+000	1.173940e+000	9.595734e-001	9.483105e-001	1.195303e+000	1.057367e+000	1.236690e+000	1.088372e+000	8.892489e-001	8.257279e-001	1.116103e+000	1.199380e+000	1.271479e+000	1.314223e+000	1.314542e+000	1.305761e+000	1.253192e+000	1.105497e+000	7.359439e-001	1.101322e+000	1.097357e+000	1.092407e+000	9.822243e-001	7.595945e-001	1.082237e+000	1.030985e+000	1.031555e+000	6.012935e-001	6.187794e-001	6.591742e-001	1.011263e+000	6.354775e-001	9.511685e-001	7.264351e-001	1.076485e+000	9.604147e-001	1.118328e+000	1.063903e+000	1.309145e+000	1.149029e+000	1.137547e+000	1.086926e+000	1.069510e+000	1.271060e+000	1.087958e+000	1.216433e+000	1.035839e+000	1.223244e+000	1.129914e+000	1.141716e+000	1.130429e+000	7.984214e-001	8.075032e-001	1.070258e+000	5.901027e-001	1.033063e+000	1.096252e+000	9.541373e-001	1.249108e+000	7.420699e-001	7.510909e-001	7.567703e-001	9.494679e-001	1.143887e+000	1.171997e+000	1.283544e+000	1.109818e+000	1.016285e+000	1.023656e+000	1.032871e+000	1.041982e+000	9.730987e-001	9.870121e-001	1.051364e+000	1.060939e+000	1.069334e+000	1.079187e+000	1.104427e+000	1.104711e+000	9.721062e-001	1.100067e+000	7.383327e-001	7.497573e-001	7.520825e-001	7.476034e-001	1.099080e+000	1.102392e+000	9.058271e-001	8.955497e-001	1.098862e+000	1.096901e+000	9.659232e-001	9.365439e-001	9.252687e-001	9.177903e-001	9.403469e-001	1.051450e+000	1.033687e+000	1.016585e+000	1.001563e+000	7.928268e-001	7.843409e-001	7.792035e-001	7.712040e-001	7.667657e-001	8.792454e-001	8.723736e-001	8.621295e-001	8.554330e-001	8.455972e-001	1.050941e+000	1.045037e+000	1.039902e+000	6.436150e-001	6.549825e-001	6.625880e-001	6.740305e-001	6.816778e-001	9.290446e-001	9.477527e-001	7.653646e-001	7.706595e-001	8.304694e-001	8.405478e-001	8.510273e-001	1.030925e+000	1.030757e+000	1.029763e+000	1.028855e+000	1.026973e+000	1.025516e+000	1.023085e+000	1.020249e+000	1.017438e+000	1.014841e+000	1.005675e+000	1.013582e+000	9.974501e-001	5.593104e-001	5.699562e-001	7.788819e-001	7.836086e-001	7.913563e-001	7.955242e-001	8.034104e-001	8.102773e-001	8.176968e-001	9.674388e-001	9.877787e-001	9.931659e-001	9.998464e-001	1.007605e+000	8.168900e-001	9.229658e-001	1.010314e+000	1.035837e+000	1.061244e+000	8.615629e-001	8.723639e-001	8.842212e-001	8.985287e-001	9.133830e-001	6.929347e-001	7.005061e-001	7.110818e-001	7.202961e-001	1.030915e+000	1.030802e+000	9.394251e-001	9.445380e-001	8.390310e-001	8.293341e-001	8.229811e-001	8.135947e-001	1.126649e+000	1.112504e+000	1.185496e+000	1.282727e+000	1.149117e+000	1.096593e+000	1.072073e+000	1.230412e+000	1.040923e+000	1.108807e+000	1.095850e+000	1.265040e+000	1.089794e+000	1.166403e+000	7.391227e-001	1.126210e+000	1.138983e+000	1.208199e+000	1.146980e+000	1.097485e+000	9.428906e-001	1.066438e+000	8.100852e-001	1.089378e+000	1.081868e+000	9.433113e-001	9.556737e-001	8.917026e-001	1.236542e+000	7.616866e-001	9.816451e-001	9.688401e-001	8.464018e-001	1.055145e+000	1.030839e+000	1.250705e+000	1.114415e+000	1.098027e+000	1.121669e+000	1.060672e+000	1.311445e+000	1.251861e+000	1.096743e+000	9.670969e-001	6.433356e-001	6.589413e-001	1.077475e+000	1.133292e+000	1.092574e+000	1.289151e+000	1.142130e+000	1.072908e+000	1.221396e+000	1.203971e+000	6.103197e-001	1.108704e+000	1.037679e+000	1.035124e+000	6.260403e-001	7.538916e-001	7.684478e-001	9.607220e-001	1.163270e+000	1.186774e+000	1.128481e+000	1.027358e+000	1.043066e+000	9.943081e-001	1.059511e+000	1.072241e+000	1.097743e+000	1.098862e+000	7.566247e-001	1.094207e+000	1.096335e+000	9.079559e-001	1.095847e+000	9.738568e-001	9.819683e-001	9.391332e-001	9.245994e-001	9.469106e-001	1.055980e+000	1.038080e+000	1.021868e+000	1.010726e+000	7.959197e-001	7.828524e-001	7.731255e-001	8.743364e-001	8.573582e-001	1.049901e+000	1.045146e+000	6.775487e-001	6.957215e-001	9.599957e-001	7.825061e-001	8.620076e-001	1.014771e+000	1.029448e+000	1.027059e+000	1.023891e+000	1.020493e+000	1.017516e+000	1.011694e+000	1.004647e+000	1.006046e+000	1.025396e+000	8.488809e-001	5.935244e-001	5.694355e-001	5.975720e-001	7.958699e-001	8.084082e-001	8.205486e-001	8.259184e-001	8.359856e-001	9.803191e-001	9.997099e-001	9.926498e-001	1.003981e+000	1.016005e+000	7.916189e-001	8.817774e-001	1.019797e+000	1.042871e+000	1.066678e+000	1.089969e+000	8.744793e-001	8.859625e-001	8.979214e-001	9.119841e-001	9.296200e-001	9.412188e-001	7.129160e-001	7.280023e-001	1.033107e+000	1.032105e+000	9.399808e-001	9.499013e-001	9.553121e-001	8.409718e-001	8.251844e-001	1.082161e+000	1.130019e+000	1.124480e+000	1.098069e+000	1.035738e+000	1.073349e+000	1.123917e+000	1.106096e+000	1.192249e+000	1.142345e+000	1.113560e+000	1.101590e+000	1.155253e+000	1.231360e+000	1.246998e+000	1.048977e+000	9.748032e-001	7.457746e-001	1.088623e+000	1.064114e+000	1.107554e+000	9.634892e-001	1.134365e+000	1.176155e+000	7.786689e-001	1.086478e+000	9.488362e-001	9.441960e-001	1.093294e+000	1.093602e+000	1.090765e+000	1.076042e+000	1.121575e+000	1.063072e+000	1.068020e+000	1.041466e+000	7.729323e-001	6.188868e-001	9.614091e-001	1.000744e+000	1.108578e+000	1.113096e+000	1.292169e+000	1.092986e+000	1.044911e+000	1.144098e+000	1.094070e+000	1.213537e+000	1.159077e+000	9.179204e-001	1.234189e+000	9.910428e-001	9.757336e-001	1.058133e+000	1.263037e+000	1.092435e+000	1.095086e+000	9.677650e-001	1.268980e+000	1.142728e+000	1.015994e+000	1.221017e+000	1.207239e+000	6.