# vtk DataFile Version 3.0
vtk output
ASCII
DATASET UNSTRUCTURED_GRID
POINTS 5233 float
9.997500e-001	-3.632705e-005	0.0	9.990000e-001	-1.451329e-004	0.0	9.977600e-001	-3.237817e-004	0.0	9.960200e-001	-5.697821e-004	0.0	9.937800e-001	-8.741571e-004	0.0	9.910500e-001	-1.219907e-003	0.0	9.878400e-001	-1.584022e-003	0.0	9.841300e-001	-1.943622e-003	0.0	9.799500e-001	-2.273655e-003	0.0	9.752800e-001	-2.563450e-003	0.0	9.701500e-001	-2.813626e-003	0.0	9.645400e-001	-3.043035e-003	0.0	9.584700e-001	-3.280041e-003	0.0	9.519400e-001	-3.559236e-003	0.0	9.449600e-001	-3.914646e-003	0.0	9.375400e-001	-4.377149e-003	0.0	9.296900e-001	-4.973887e-003	0.0	9.214000e-001	-5.730364e-003	0.0	9.127000e-001	-6.664359e-003	0.0	9.035800e-001	-7.791142e-003	0.0	8.940600e-001	-9.113892e-003	0.0	8.841500e-001	-1.062627e-002	0.0	8.738500e-001	-1.231345e-002	0.0	8.631800e-001	-1.414942e-002	0.0	8.521600e-001	-1.610338e-002	0.0	8.407700e-001	-1.815096e-002	0.0	8.290500e-001	-2.025953e-002	0.0	8.170100e-001	-2.240632e-002	0.0	8.046400e-001	-2.457758e-002	0.0	7.919700e-001	-2.675777e-002	0.0	7.790100e-001	-2.893957e-002	0.0	7.657800e-001	-3.111757e-002	0.0	7.522800e-001	-3.329212e-002	0.0	7.385200e-001	-3.546338e-002	0.0	7.245300e-001	-3.762917e-002	0.0	7.103200e-001	-3.979060e-002	0.0	6.958900e-001	-4.194992e-002	0.0	6.812700e-001	-4.410415e-002	0.0	6.664700e-001	-4.625229e-002	0.0	6.515000e-001	-4.839204e-002	0.0	6.363800e-001	-5.051821e-002	0.0	6.211300e-001	-5.262411e-002	0.0	6.057600e-001	-5.470285e-002	0.0	5.902800e-001	-5.674601e-002	0.0	5.747100e-001	-5.874251e-002	0.0	5.590600e-001	-6.068152e-002	0.0	5.433600e-001	-6.254902e-002	0.0	5.276100e-001	-6.433432e-002	0.0	5.118400e-001	-6.602328e-002	0.0	4.960500e-001	-6.760548e-002	0.0	4.802700e-001	-6.906813e-002	0.0	4.645100e-001	-7.040157e-002	0.0	4.487800e-001	-7.159722e-002	0.0	4.331100e-001	-7.264648e-002	0.0	4.175000e-001	-7.354437e-002	0.0	4.019700e-001	-7.428598e-002	0.0	3.865400e-001	-7.486806e-002	0.0	3.712300e-001	-7.528893e-002	0.0	3.560400e-001	-7.554863e-002	0.0	3.409900e-001	-7.564771e-002	0.0	3.261100e-001	-7.558799e-002	0.0	3.114000e-001	-7.537222e-002	0.0	2.968700e-001	-7.500351e-002	0.0	2.825500e-001	-7.448624e-002	0.0	2.684500e-001	-7.382484e-002	0.0	2.545700e-001	-7.302335e-002	0.0	2.409400e-001	-7.208770e-002	0.0	2.275700e-001	-7.102307e-002	0.0	2.144700e-001	-6.983465e-002	0.0	2.016600e-001	-6.852870e-002	0.0	1.891400e-001	-6.710952e-002	0.0	1.769300e-001	-6.558351e-002	0.0	1.650400e-001	-6.395603e-002	0.0	1.534900e-001	-6.223393e-002	0.0	1.422900e-001	-6.042280e-002	0.0	1.314400e-001	-5.852634e-002	0.0	1.209500e-001	-5.654960e-002	0.0	1.108500e-001	-5.450170e-002	0.0	1.011300e-001	-5.238387e-002	0.0	9.181000e-002	-5.020327e-002	0.0	8.290000e-002	-4.796506e-002	0.0	7.440000e-002	-4.567156e-002	0.0	6.633000e-002	-4.333032e-002	0.0	5.869000e-002	-4.094322e-002	0.0	5.149000e-002	-3.851479e-002	0.0	4.474000e-002	-3.604964e-002	0.0	3.844000e-002	-3.354847e-002	0.0	3.260000e-002	-3.101538e-002	0.0	2.723000e-002	-2.845486e-002	0.0	2.232000e-002	-2.586100e-002	0.0	1.790000e-002	-2.324886e-002	0.0	1.395000e-002	-2.060526e-002	0.0	1.049000e-002	-1.794087e-002	0.0	7.520000e-003	-1.525429e-002	0.0	5.040000e-003	-1.254287e-002	0.0	3.050000e-003	-9.801594e-003	0.0	1.560000e-003	-7.041965e-003	0.0	5.600000e-004	-4.237587e-003	0.0	6.000000e-005	-1.390912e-003	0.0	0.000000e+000	0.000000e+000	0.0	6.000000e-005	1.280931e-003	0.0	5.600000e-004	3.770321e-003	0.0	1.560000e-003	6.188981e-003	0.0	3.050000e-003	8.587673e-003	0.0	5.040000e-003	1.101152e-002	0.0	7.520000e-003	1.346024e-002	0.0	1.049000e-002	1.594097e-002	0.0	1.395000e-002	1.845450e-002	0.0	1.790000e-002	2.099756e-002	0.0	2.232000e-002	2.355300e-002	0.0	2.723000e-002	2.612560e-002	0.0	3.260000e-002	2.869150e-002	0.0	3.844000e-002	3.124723e-002	0.0	4.474000e-002	3.377892e-002	0.0	5.149000e-002	3.627330e-002	0.0	5.869000e-002	3.872104e-002	0.0	6.633000e-002	4.110953e-002	0.0	7.440000e-002	4.342714e-002	0.0	8.290000e-002	4.566579e-002	0.0	9.181000e-002	4.781305e-002	0.0	1.011300e-001	4.986268e-002	0.0	1.108500e-001	5.180698e-002	0.0	1.209500e-001	5.363778e-002	0.0	1.314400e-001	5.535349e-002	0.0	1.422900e-001	5.694690e-002	0.0	1.534900e-001	5.841578e-002	0.0	1.650400e-001	5.976014e-002	0.0	1.769300e-001	6.097962e-002	0.0	1.891400e-001	6.207410e-002	0.0	2.016600e-001	6.304573e-002	0.0	2.144700e-001	6.389691e-002	0.0	2.275700e-001	6.463229e-002	0.0	2.409400e-001	6.525595e-002	0.0	2.545700e-001	6.577319e-002	0.0	2.684500e-001	6.618969e-002	0.0	2.825500e-001	6.651093e-002	0.0	2.968700e-001	6.674330e-002	0.0	3.114000e-001	6.689265e-002	0.0	3.261100e-001	6.696437e-002	0.0	3.409900e-001	6.696355e-002	0.0	3.560400e-001	6.689436e-002	0.0	3.712300e-001	6.676006e-002	0.0	3.865400e-001	6.656285e-002	0.0	4.019700e-001	6.630332e-002	0.0	4.175000e-001	6.598085e-002	0.0	4.331100e-001	6.559343e-002	0.0	4.487800e-001	6.513765e-002	0.0	4.645100e-001	6.460809e-002	0.0	4.802700e-001	6.399899e-002	0.0	4.960500e-001	6.330296e-002	0.0	5.118400e-001	6.251180e-002	0.0	5.276100e-001	6.161799e-002	0.0	5.433600e-001	6.061255e-002	0.0	5.590600e-001	5.948887e-002	0.0	5.747100e-001	5.823941e-002	0.0	5.902800e-001	5.686052e-002	0.0	6.057600e-001	5.534916e-002	0.0	6.211300e-001	5.370574e-002	0.0	6.363800e-001	5.193255e-002	0.0	6.515000e-001	5.003486e-002	0.0	6.664700e-001	4.802236e-002	0.0	6.812700e-001	4.590818e-002	0.0	6.958900e-001	4.370705e-002	0.0	7.103200e-001	4.143630e-002	0.0	7.245300e-001	3.911866e-002	0.0	7.385200e-001	3.677368e-002	0.0	7.522800e-001	3.442338e-002	0.0	7.657800e-001	3.209337e-002	0.0	7.790100e-001	2.980526e-002	0.0	7.919700e-001	2.757750e-002	0.0	8.046400e-001	2.542976e-002	0.0	8.170100e-001	2.337703e-002	0.0	8.290500e-001	2.143380e-002	0.0	8.407700e-001	1.960372e-002	0.0	8.521600e-001	1.788901e-002	0.0	8.631800e-001	1.629109e-002	0.0	8.738500e-001	1.479765e-002	0.0	8.841500e-001	1.339813e-002	0.0	8.940600e-001	1.207945e-002	0.0	9.035800e-001	1.082616e-002	0.0	9.127000e-001	9.628199e-003	0.0	9.214000e-001	8.484572e-003	0.0	9.296900e-001	7.400700e-003	0.0	9.375400e-001	6.397136e-003	0.0	9.449600e-001	5.494628e-003	0.0	9.519400e-001	4.713740e-003	0.0	9.584700e-001	4.062793e-003	0.0	9.645400e-001	3.531612e-003	0.0	9.701500e-001	3.091530e-003	0.0	9.752800e-001	2.706048e-003	0.0	9.799500e-001	2.338431e-003	0.0	9.841300e-001	1.969242e-003	0.0	9.878400e-001	1.592530e-003	0.0	9.910500e-001	1.222183e-003	0.0	9.937800e-001	8.746003e-004	0.0	9.960200e-001	5.698322e-004	0.0	9.977600e-001	3.237821e-004	0.0	9.990000e-001	1.451325e-004	0.0	9.997500e-001	3.632704e-005	0.0	1.000000e+000	0.000000e+000	0.0	1.984229e+001	2.506660e+000	0.0	1.937166e+001	4.973800e+000	0.0	1.859553e+001	7.362490e+000	0.0	1.752613e+001	9.635070e+000	0.0	1.618034e+001	1.175571e+001	0.0	1.457937e+001	1.369094e+001	0.0	1.274848e+001	1.541027e+001	0.0	1.071654e+001	1.688656e+001	0.0	8.515590e+000	1.809654e+001	0.0	6.180340e+000	1.902113e+001	0.0	3.747630e+000	1.964575e+001	0.0	1.255810e+000	1.996053e+001	0.0	-1.255810e+000	1.996053e+001	0.0	-3.747630e+000	1.964574e+001	0.0	-6.180340e+000	1.902113e+001	0.0	-8.515590e+000	1.809654e+001	0.0	-1.071654e+001	1.688656e+001	0.0	-1.274848e+001	1.541026e+001	0.0	-1.457937e+001	1.369094e+001	0.0	-1.618034e+001	1.175570e+001	0.0	-1.752613e+001	9.635070e+000	0.0	-1.859553e+001	7.362490e+000	0.0	-1.937166e+001	4.973800e+000	0.0	-1.984229e+001	2.506660e+000	0.0	-2.000000e+001	0.000000e+000	0.0	-1.984229e+001	-2.506670e+000	0.0	-1.937166e+001	-4.973800e+000	0.0	-1.859553e+001	-7.362490e+000	0.0	-1.752613e+001	-9.635080e+000	0.0	-1.618034e+001	-1.175571e+001	0.0	-1.457937e+001	-1.369094e+001	0.0	-1.274848e+001	-1.541027e+001	0.0	-1.071653e+001	-1.688656e+001	0.0	-8.515580e+000	-1.809654e+001	0.0	-6.180340e+000	-1.902113e+001	0.0	-3.747620e+000	-1.964575e+001	0.0	-1.255810e+000	-1.996053e+001	0.0	1.255810e+000	-1.996053e+001	0.0	3.747630e+000	-1.964574e+001	0.0	6.180340e+000	-1.902113e+001	0.0	8.515590e+000	-1.809654e+001	0.0	1.071654e+001	-1.688656e+001	0.0	1.274848e+001	-1.541026e+001	0.0	1.457937e+001	-1.369094e+001	0.0	1.618034e+001	-1.175570e+001	0.0	1.752614e+001	-9.635070e+000	0.0	1.859553e+001	-7.362490e+000	0.0	1.937166e+001	-4.973790e+000	0.0	1.984229e+001	-2.506660e+000	0.0	2.000000e+001	0.000000e+000	0.0	6.043486e-002	-4.914565e-002	0.0	6.607699e-001	-6.098078e-002	0.0	4.258209e-001	8.006223e-002	0.0	6.903127e-001	5.797367e-002	0.0	3.792698e-001	-8.884398e-002	0.0	9.994591e-001	-7.042712e-004	0.0	9.985462e-001	-1.285374e-003	0.0	7.741337e-001	-4.206365e-002	0.0	6.903933e-001	-5.635853e-002	0.0	-1.384814e-003	5.932456e-003	0.0	7.471808e-001	-4.689034e-002	0.0	5.838000e-001	7.153008e-002	0.0	9.927600e-001	-3.461391e-003	0.0	9.898404e-001	-4.249827e-003	0.0	5.993963e-001	6.998944e-002	0.0	7.192360e-001	-5.165322e-002	0.0	-1.576595e-003	6.610049e-004	0.0	9.864213e-001	-5.055119e-003	0.0	9.825136e-001	-5.850135e-003	0.0	-1.464018e-003	-6.593203e-003	0.0	6.457047e-001	-6.325228e-002	0.0	8.245942e-001	-3.238138e-002	0.0	7.999665e-001	-3.721716e-002	0.0	3.486304e-001	8.074676e-002	0.0	8.478899e-001	-2.768389e-002	0.0	2.472306e-001	7.798138e-002	0.0	8.697931e-001	-2.326741e-002	0.0	9.948193e-003	2.052246e-002	0.0	8.902058e-001	-1.932854e-002	0.0	7.667645e-002	-5.460437e-002	0.0	9.090731e-001	-1.601409e-002	0.0	-1.916036e-003	-3.276694e-003	0.0	9.419216e-001	-1.127120e-002	0.0	9.263332e-001	-1.335611e-002	0.0	1.776199e-002	-2.863766e-002	0.0	4.260359e-001	-8.712636e-002	0.0	8.590244e-001	-2.542561e-002	0.0	9.557942e-001	-9.597493e-003	0.0	9.781118e-001	-6.638137e-003	0.0	9.678849e-001	-8.116060e-003	0.0	1.578394e-001	-7.360301e-002	0.0	8.998383e-001	-1.758838e-002	0.0	7.607917e-001	-4.448292e-002	0.0	9.971210e-001	-2.003019e-003	0.0	5.996733e-001	-6.983365e-002	0.0	4.417840e-001	-8.622087e-002	0.0	5.368869e-001	-7.772167e-002	0.0	4.734411e-001	-8.394126e-002	0.0	5.051796e-001	-8.108560e-002	0.0	4.892994e-001	-8.258128e-002	0.0	1.245349e-001	-6.709426e-002	0.0	2.762934e-002	-3.469868e-002	0.0	3.947664e-001	-8.844203e-002	0.0	4.595039e-002	-4.349
[...]
POINT_DATA 5233

SCALARS Density float 1
LOOKUP_TABLE default
1.151017e+000	1.127220e+000	1.111743e+000	1.097631e+000	1.084586e+000	1.073044e+000	1.063839e+000	1.058338e+000	1.057259e+000	1.060320e+000	1.066400e+000	1.073915e+000	1.081492e+000	1.088137e+000	1.093391e+000	1.097103e+000	1.099230e+000	1.099731e+000	1.098509e+000	1.095527e+000	1.090788e+000	1.084462e+000	1.076793e+000	1.068192e+000	1.059049e+000	1.049778e+000	1.040752e+000	1.032232e+000	1.024396e+000	1.017304e+000	1.010948e+000	1.005264e+000	1.000133e+000	9.954614e-001	9.911874e-001	9.872047e-001	9.835162e-001	9.802467e-001	9.776967e-001	9.753175e-001	9.719173e-001	9.719771e-001	9.833537e-001	9.824402e-001	8.644100e-001	6.857091e-001	6.233016e-001	6.341513e-001	6.446788e-001	6.503959e-001	6.543486e-001	6.602784e-001	6.675726e-001	6.752069e-001	6.829230e-001	6.910314e-001	6.998019e-001	7.091581e-001	7.189304e-001	7.289216e-001	7.390972e-001	7.493864e-001	7.597363e-001	7.701255e-001	7.805096e-001	7.909142e-001	8.013790e-001	8.119017e-001	8.224097e-001	8.328407e-001	8.431564e-001	8.534328e-001	8.637992e-001	8.743687e-001	8.851549e-001	8.960729e-001	9.071244e-001	9.184050e-001	9.299741e-001	9.418555e-001	9.541604e-001	9.669392e-001	9.803049e-001	9.943588e-001	1.009244e+000	1.025169e+000	1.042318e+000	1.060975e+000	1.081521e+000	1.104218e+000	1.129518e+000	1.157895e+000	1.189383e+000	1.223907e+000	1.260367e+000	1.296948e+000	1.327105e+000	1.348934e+000	1.347615e+000	1.331677e+000	1.320178e+000	1.285291e+000	1.220484e+000	1.170252e+000	1.126656e+000	1.089663e+000	1.058235e+000	1.030754e+000	1.005759e+000	9.826315e-001	9.608429e-001	9.399660e-001	9.199406e-001	9.005802e-001	8.818216e-001	8.636918e-001	8.461149e-001	8.290311e-001	8.125508e-001	7.967435e-001	7.817386e-001	7.675412e-001	7.539912e-001	7.409172e-001	7.283928e-001	7.167528e-001	7.063647e-001	6.970469e-001	6.884308e-001	6.802594e-001	6.727234e-001	6.660890e-001	6.605477e-001	6.560101e-001	6.523390e-001	6.493355e-001	6.468508e-001	6.447896e-001	6.430051e-001	6.414402e-001	6.400591e-001	6.388889e-001	6.378922e-001	6.368015e-001	6.353163e-001	6.333000e-001	6.307189e-001	6.276397e-001	6.240289e-001	6.199774e-001	6.154173e-001	6.101666e-001	6.042015e-001	5.972737e-001	5.897382e-001	5.818386e-001	5.739016e-001	5.662965e-001	5.603666e-001	5.511775e-001	5.413859e-001	5.519427e-001	6.863342e-001	9.305753e-001	1.003723e+000	9.990474e-001	9.993993e-001	1.006579e+000	1.012443e+000	1.017718e+000	1.022944e+000	1.027739e+000	1.031927e+000	1.035460e+000	1.038359e+000	1.040628e+000	1.042413e+000	1.043899e+000	1.045390e+000	1.047224e+000	1.049717e+000	1.053058e+000	1.057150e+000	1.061586e+000	1.065665e+000	1.068612e+000	1.069783e+000	1.068953e+000	1.066514e+000	1.063517e+000	1.061395e+000	1.061456e+000	1.064467e+000	1.070421e+000	1.078522e+000	1.088406e+000	1.099344e+000	1.112403e+000	1.125849e+000	1.122260e+000	9.983424e-001	9.996055e-001	9.997426e-001	9.995983e-001	9.995157e-001	9.994068e-001	9.992760e-001	9.991119e-001	9.989324e-001	9.988186e-001	9.987738e-001	9.988804e-001	9.990981e-001	9.994717e-001	9.997752e-001	1.000013e+000	1.000142e+000	1.000220e+000	1.000264e+000	1.000282e+000	1.000291e+000	1.000293e+000	1.000294e+000	1.000301e+000	1.000306e+000	1.000317e+000	1.000338e+000	1.000365e+000	1.000403e+000	1.000460e+000	1.000523e+000	1.000624e+000	1.000720e+000	1.000878e+000	1.001018e+000	1.001182e+000	1.001345e+000	1.001395e+000	1.001397e+000	1.001281e+000	1.001158e+000	1.000984e+000	1.000820e+000	1.000660e+000	1.000520e+000	1.000334e+000	1.000185e+000	1.000242e+000	9.990037e-001	9.974215e-001	9.995403e-001	9.795515e-001	6.379791e-001	5.801942e-001	7.135916e-001	1.131231e+000	1.119410e+000	1.011208e+000	9.847357e-001	1.274038e+000	1.000898e+000	5.946773e-001	1.082811e+000	1.073833e+000	5.869779e-001	9.922005e-001	1.329526e+000	1.067249e+000	1.063940e+000	1.335551e+000	9.768181e-001	1.038547e+000	1.023686e+000	6.444942e-001	1.055059e+000	6.657007e-001	1.071328e+000	1.074116e+000	1.084733e+000	9.715566e-001	1.093102e+000	1.346883e+000	1.092054e+000	1.095489e+000	1.135433e+000	6.876818e-001	1.063382e+000	1.083473e+000	1.064023e+000	1.072015e+000	8.778663e-001	1.089649e+000	1.005817e+000	1.105576e+000	9.942327e-001	6.797991e-001	6.312162e-001	6.646637e-001	6.548170e-001	6.590506e-001	9.108829e-001	1.087973e+000	7.043780e-001	1.030949e+000	6.957937e-001	7.533151e-001	7.330844e-001	1.067345e+000	7.738725e-001	1.094463e+000	8.886640e-001	8.466758e-001	9.585496e-001	9.339523e-001	7.599491e-001	8.673258e-001	9.781224e-001	1.078557e+000	1.110588e+000	1.093611e+000	1.224004e+000	1.018738e+000	1.095051e+000	1.088333e+000	1.067039e+000	1.229060e+000	1.046683e+000	8.048842e-001	6.346647e-001	9.963619e-001	1.017147e+000	9.222730e-001	8.258310e-001	9.729746e-001	9.818106e-001	1.014741e+000	1.256625e+000	1.162673e+000	7.231907e-001	8.569825e-001	1.164504e+000	8.153355e-001	9.460405e-001	7.635788e-001	7.945012e-001	6.719271e-001	9.882950e-001	1.312575e+000	1.316637e+000	6.144207e-001	1.338221e+000	9.715919e-001	8.905175e-001	9.293418e-001	7.752675e-001	6.394833e-001	1.094670e+000	6.193527e-001	6.307178e-001	1.065763e+000	1.068107e+000	1.046015e+000	6.274361e-001	6.360326e-001	6.417484e-001	1.056319e+000	1.050187e+000	8.371028e-001	1.064621e+000	1.067810e+000	1.063386e+000	8.046662e-001	8.721375e-001	6.535493e-001	6.608868e-001	7.132675e-001	6.483451e-001	6.336218e-001	6.406699e-001	7.354079e-001	7.614421e-001	5.723244e-001	6.945845e-001	6.782975e-001	5.526614e-001	6.019052e-001	9.988625e-001	1.008378e+000	1.021767e+000	1.011864e+000	1.037595e+000	1.030723e+000	1.047915e+000	1.042394e+000	1.066163e+000	1.052997e+000	1.067235e+000	1.040205e+000	1.044247e+000	1.026495e+000	1.034426e+000	1.005863e+000	1.016792e+000	8.442375e-001	1.001926e+000	5.652364e-001	5.430030e-001	6.085117e-001	5.790939e-001	6.860882e-001	6.715091e-001	7.237998e-001	7.036597e-001	9.095454e-001	7.481056e-001	1.045076e+000	9.499846e-001	8.362951e-001	1.143253e+000	1.077818e+000	1.030829e+000	7.431441e-001	6.453094e-001	1.184859e+000	9.943853e-001	1.106489e+000	8.205171e-001	8.543172e-001	6.568775e-001	7.896150e-001	1.064742e+000	1.066829e+000	6.507406e-001	1.071183e+000	1.077450e+000	6.463069e-001	6.429730e-001	1.059929e+000	1.136647e+000	1.105657e+000	1.116156e+000	9.735905e-001	1.048420e+000	1.085415e+000	6.236612e-001	1.288590e+000	1.192369e+000	9.851815e-001	8.996994e-001	7.841861e-001	8.631648e-001	1.258127e+000	1.295194e+000	7.887932e-001	9.893738e-001	1.089984e+000	1.216178e+000	6.065970e-001	9.859149e-001	1.017161e+000	1.075194e+000	7.582943e-001	1.059043e+000	1.044051e+000	9.629776e-001	1.317914e+000	8.404955e-001	1.161119e+000	1.080230e+000	8.928137e-001	9.932342e-001	9.814809e-001	6.853711e-001	9.760715e-001	7.193030e-001	1.083767e+000	1.023171e+000	1.111877e+000	1.027209e+000	5.459976e-001	1.036720e+000	7.988060e-001	5.589566e-001	7.327967e-001	1.044248e+000	1.071725e+000	6.504767e-001	6.277012e-001	1.065937e+000	1.046298e+000	1.076121e+000	1.067000e+000	1.067134e+000	6.788960e-001	6.529643e-001	6.858862e-001	8.138277e-001	9.833766e-001	8.509266e-001	1.081216e+000	7.567079e-001	9.183673e-001	1.067021e+000	1.082219e+000	1.048290e+000	8.820893e-001	1.151964e+000	1.097665e+000	1.089392e+000	1.145288e+000	1.219967e+000	1.244866e+000	1.338190e+000	1.330467e+000	1.135915e+000	1.163566e+000	1.004071e+000	1.110052e+000	1.089892e+000	6.425382e-001	6.337353e-001	1.070835e+000	1.072954e+000	5.999195e-001	1.081552e+000	1.333976e+000	6.936597e-001	6.440046e-001	1.051581e+000	6.629776e-001	1.066278e+000	1.078842e+000	9.897247e-001	1.087479e+000	1.091183e+000	1.087509e+000	1.091055e+000	1.084206e+000	1.076044e+000	1.069074e+000	9.151068e-001	1.006455e+000	1.011592e+000	1.099506e+000	6.776582e-001	6.711428e-001	6.647947e-001	1.112693e+000	7.104641e-001	7.019693e-001	7.482676e-001	1.052618e+000	1.091130e+000	1.089873e+000	9.038314e-001	9.504047e-001	6.824279e-001	9.843435e-001	1.072273e+000	1.069717e+000	9.972925e-001	1.001747e+000	9.383267e-001	9.265673e-001	9.029299e-001	9.933312e-001	1.035421e+000	1.019303e+000	1.187862e+000	7.383875e-001	7.287182e-001	8.716600e-001	8.613105e-001	8.300492e-001	8.196493e-001	7.785899e-001	7.683928e-001	8.093012e-001	1.320857e+000	1.273180e+000	9.380619e-001	1.068660e+000	6.234987e-001	6.312239e-001	6.343063e-001	6.368369e-001	1.066793e+000	1.067279e+000	1.055662e+000	6.390579e-001	6.409156e-001	6.454208e-001	1.052922e+000	1.064038e+000	8.809022e-001	8.993363e-001	6.728142e-001	6.674863e-001	7.442821e-001	7.702544e-001	7.843329e-001	1.020658e+000	9.992657e-001	1.006858e+000	1.016039e+000	1.033331e+000	1.050469e+000	1.042077e+000	1.039542e+000	1.029581e+000	1.025394e+000	1.011960e+000	1.005995e+000	9.819009e-001	6.889341e-001	5.691210e-001	5.775351e-001	6.128702e-001	6.184009e-001	5.856628e-001	5.927645e-001	6.936415e-001	7.023950e-001	7.118942e-001	7.221274e-001	1.053219e+000	9.586479e-001	9.803395e-001	1.029719e+000	1.036733e+000	6.574003e-001	6.415145e-001	1.182036e+000	1.003136e+000	8.295495e-001	8.460039e-001	6.557773e-001	6.590865e-001	6.468432e-001	6.484570e-001	1.061497e+000	1.058596e+000	9.767099e-001	9.790047e-001	1.071082e+000	1.299247e+000	7.990384e-001	1.315485e+000	7.261658e-001	7.941759e-001	1.022840e+000	6.408235e-001	1.086765e+000	1.075444e+000	1.072012e+000	1.066705e+000	1.178116e+000	1.080409e+000	1.106411e+000	1.118570e+000	1.103241e+000	1.144425e+000	1.136029e+000	1.304808e+000	9.679558e-001	1.087428e+000	1.081663e+000	6.182940e-001	1.121745e+000	1.233846e+000	9.939819e-001	1.281467e+000	9.980061e-001	1.158922e+000	1.067984e+000	1.208455e+000	7.640683e-001	1.061828e+000	9.902885e-001	1.088317e+000	1.183405e+000	1.068221e+000	6.324624e-001	1.064453e+000	5.679381e-001	1.085520e+000	6.361204e-001	6.745949e-001	6.579286e-001	7.547390e-001	8.906452e-001	1.113921e+000	1.297419e+000	1.241370e+000	1.059774e+000	1.277008e+000	1.078122e+000	9.809762e-001	1.326463e+000	8.975771e-001	6.918568e-001	1.114237e+000	1.115059e+000	1.035895e+000	1.020698e+000	5.539199e-001	1.069638e+000	1.065841e+000	1.048270e+000	1.046185e+000	6.612170e-001	6.694261e-001	6.942959e-001	8.242936e-001	9.852425e-001	9.872064e-001	8.557778e-001	1.086598e+000	7.667607e-001	1.067560e+000	1.091413e+000	1.145631e+000	1.211238e+000	1.258312e+000	1.322449e+000	1.093595e+000	1.137585e+000	1.128381e+000	1.075415e+000	1.076928e+000	6.129558e-001	6.998821e-001	6.477389e-001	1.048495e+000	1.055241e+000	1.073535e+000	1.078372e+000	1.008846e+000	9.946258e-001	1.082150e+000	1.085064e+000	1.083686e+000	1.081028e+000	1.073928e+000	1.011909e+000	1.017187e+000	1.095618e+000	6.845270e-001	6.778249e-001	7.174857e-001	7.087162e-001	1.074562e+000	1.087117e+000	1.085775e+000	9.198817e-001	9.085586e-001	6.572460e-001	8.042399e-001	1.073484e+000	1.072838e+000	1.002366e+000	1.006944e+000	9.553931e-001	9.431443e-001	9.313867e-001	9.742108e-001	9.904456e-001	1.056833e+000	1.039914e+000	1.023854e+000	7.542590e-001	7.445358e-001	7.350675e-001	8.870703e-001	8.766472e-001	8.662216e-001	8.453748e-001	8.350183e-001	7.840482e-001	7.740359e-001	8.247090e-001	9.474124e-001	6.387236e-001	6.410214e-001	1.067157e+000	6.429218e-001	6.445904e-001	6.461272e-001	6.494417e-001	1.055135e+000	9.089035e-001	9.279021e-001	6.803585e-001	6.870553e-001	7.797583e-001	7.942774e-001	8.092861e-001	1.002853e+000	1.052747e+000	1.050461e+000	1.043916e+000	1.041590e+000	1.038960e+000	1.032521e+000	1.028660e+000	1.024765e+000	1.016759e+000	1.013034e+000	1.005261e+000	1.010379e+000	8.895797e-001	6.099302e-001	5.817640e-001	6.236431e-001	6.283784e-001	5.922504e-001	5.992087e-001	6.064553e-001	7.023692e-001	7.110265e-001	7.208678e-001	7.315649e-001	7.430918e-001	9.675056e-001	9.888103e-001	1.028814e+000	1.035177e+000	1.041683e+000	6.687222e-001	6.569552e-001	1.011396e+000	1.034847e+000	8.397901e-001	8.560908e-001	8.730379e-001	6.650520e-001	6.513160e-001	6.532132e-001	6.553018e-001	1.062531e+000	1.060206e+000	1.057713e+000	9.800476e-001	9.797384e-001	9.829177e-001	8.144857e-001	8.042991e-001	1.296638e+000	9.729567e-001	1.087101e+000	1.069989e+000	6.657624e-001	1.286819e+000	1.111066e+000	1.083424e+000	1.083735e+000	1.094856e+000	1.078155e+000	6.442472e-001	1.278758e+000	1.089756e+000	1.221444e+000	1.065873e+000	1.082359e+000	1.226773e+000	5.737867e-001	1.200565e+000	1.121196e+000	1.141588e+000	1.027745e+000	9.034971e-001	1.134730e+000	7.348686e-001	9.859981e-001	7.081482e-001	8.009284e-001	1.071972e+000	6.298273e-001	1.064632e+000	1.063104e+000	1.019007e+000	7.791142e-001	6.901790e-001	1.081927e+000	9.183751e-001	1.063462e+000	1.097713e+000	1.074719e+000	1.098550e+000	1.075915e+000	1.155269e+000	9.940954e-001	1.243210e+000	9.983386e-001	1.002404e+000	1.177260e+000	1.086699e+000	1.199545e+000	1.034848e+000	6.406498e-001	6.727516e-001	1.258032e+000	1.115949e+000	5.780253e-001	1.047784e+000	6.686031e-001	6.780126e-001	6.834889e-001	9.867260e-001	9.903019e-001	1.068603e+000	1.143028e+000	1.171794e+000	1.263626e+000	1.305429e+000	1.114241e+000	1.077183e+000	1.078397e+000	6.254995e-001	1.051814e+000	1.057858e+000	1.068844e+000	1.073163e+000	1.013333e+000	9.993731e-001	1.077061e+000	1.080013e+000	1.082115e+000	1.080731e+000	1.078931e+000	1.016496e+000	1.022005e+000	1.092384e+000	7.004118e-001	6.932471e-001	7.257124e-001	7.164144e-001	1.083492e+000	1.082330e+000	9.253078e-001	9.137551e-001	7.351477e-001	1.075478e+000	1.076251e+000	1.006795e+000	1.012118e+000	9.604905e-001	9.484721e-001	9.368980e-001	9.093863e-001	9.871981e-001	1.077424e+000	1.060111e+000	1.043399e+000	1.027852e+000	7.715333e-001	7.618188e-001	7.525995e-001	7.434739e-001	8.930846e-001	8.826594e-001	8.721470e-001	8.617818e-001	8.514984e-001	7.811528e-001	7.910855e-001	8.412701e-001	6.462721e-001	1.067658e+000	1.066803e+000	6.480141e-001	6.494482e-001	6.510146e-001	6.525278e-001	6.545546e-001	9.371718e-001	9.567308e-001	6.970190e-001	7.051422e-001	7.916183e-001	8.050495e-001	8.201895e-001	8.357515e-001	1.054643e+000	1.052245e+000	1.050230e+000	1.045673e+000	1.043124e+000	1.040844e+000	1.037086e+000	1.031725e+000	1.027246e+000	1.024038e+000	1.014625e+000	1.012137e+000	1.011237e+000	1.017467e+000	9.939927e-001	7.499823e-001	5.965213e-001	6.383700e-001	6.335472e-001	5.945929e-001	6.062020e-001	6.144557e-001	6.188217e-001	7.131777e-001	7.223258e-001	7.314840e-001	7.422120e-001	7.536295e-001	7.661248e-001	9.763532e-001	9.964342e-001	1.033272e+000	1.039876e+000	1.045780e+000	6.817275e-001	6.661726e-001	6.622915e-001	1.018435e+000	1.041312e+000	1.064576e+000	8.511496e-001	8.668103e-001	8.834872e-001	9.006754e-001	6.566631e-001	6.593183e-001	6.619409e-001	6.648011e-001	1.056871e+000	1.061190e+000	1.059167e+000	9.918284e-001	9.847601e-001	9.814761e-001	9.837441e-001	8.311170e-001	8.209683e-001	8.109868e-001	1.170955e+000	1.084738e+000	1.077042e+000	1.117008e+000	1.190915e+000	1.003738e+000	9.783162e-001	1.210163e+000	1.069770e+000	1.247136e+000	1.113340e+000	9.109940e-001	8.060398e-001	1.116014e+000	1.190666e+000	1.263420e+000	1.308493e+000	1.309034e+000	1.299608e+000	1.261329e+000	1.096049e+000	6.819650e-001	1.076952e+000	1.085561e+000	1.079846e+000	1.027983e+000	7.433836e-001	1.079592e+000	1.056093e+000	1.061721e+000	6.412771e-001	6.479311e-001	5.971532e-001	1.013601e+000	6.518186e-001	6.945153e-001	6.754564e-001	1.076416e+000	9.910862e-001	1.109113e+000	1.071473e+000	1.306008e+000	1.135296e+000	1.125474e+000	1.080513e+000	1.096192e+000	1.276466e+000	1.091850e+000	1.229114e+000	1.064774e+000	1.213710e+000	1.119829e+000	1.128674e+000	1.151552e+000	7.976457e-001	8.091741e-001	1.073656e+000	6.372925e-001	1.063430e+000	1.081936e+000	9.950218e-001	1.239583e+000	6.859180e-001	6.941117e-001	6.991560e-001	9.854829e-001	1.140259e+000	1.165392e+000	1.285940e+000	1.132875e+000	1.054302e+000	1.059264e+000	1.063551e+000	1.068723e+000	1.004191e+000	1.018008e+000	1.071810e+000	1.075738e+000	1.076909e+000	1.079460e+000	1.078564e+000	1.077668e+000	1.018245e+000	1.089785e+000	7.161487e-001	7.104017e-001	7.325986e-001	7.259370e-001	1.080252e+000	1.079458e+000	9.304824e-001	9.190527e-001	1.077667e+000	1.079306e+000	1.011164e+000	9.655983e-001	9.533191e-001	9.441925e-001	8.806592e-001	1.079508e+000	1.062975e+000	1.046815e+000	1.032235e+000	7.898596e-001	7.786079e-001	7.711522e-001	7.601906e-001	7.534951e-001	8.989878e-001	8.901255e-001	8.777854e-001	8.692098e-001	8.573178e-001	1.068348e+000	1.067180e+000	1.066025e+000	6.529327e-001	6.550718e-001	6.557665e-001	6.582281e-001	6.592855e-001	9.468919e-001	9.661588e-001	7.089994e-001	7.151521e-001	8.153696e-001	8.313108e-001	8.476217e-001	1.053411e+000	1.051439e+000	1.048802e+000	1.046766e+000	1.043904e+000	1.041825e+000	1.038304e+000	1.033961e+000	1.029495e+000	1.022142e+000	1.028819e+000	9.526246e-001	6.298067e-001	6.119002e-001	6.284078e-001	7.263903e-001	7.331882e-001	7.454326e-001	7.528392e-001	7.664670e-001	7.787660e-001	7.920246e-001	9.854307e-001	1.004545e+000	1.037227e+000	1.043225e+000	1.048052e+000	6.970531e-001	6.787564e-001	1.024792e+000	1.047106e+000	1.068986e+000	8.634722e-001	8.789462e-001	8.947643e-001	9.122309e-001	9.295331e-001	6.626338e-001	6.644763e-001	6.689068e-001	6.727533e-001	1.060089e+000	1.057396e+000	1.000813e+000	9.867196e-001	8.489015e-001	8.370807e-001	8.288524e-001	8.172490e-001	1.116392e+000	1.102666e+000	1.199134e+000	1.276665e+000	1.134807e+000	1.078072e+000	1.074789e+000	1.223097e+000	1.064754e+000	1.099031e+000	1.081696e+000	1.268206e+000	1.112209e+000	1.181871e+000	6.869594e-001	1.117323e+000	1.136699e+000	1.201200e+000	1.164264e+000	1.077297e+000	6.950766e-001	1.072569e+000	8.107193e-001	1.076963e+000	1.076703e+000	9.963426e-001	9.830976e-001	9.115176e-001	1.244412e+000	7.456657e-001	1.009654e+000	9.965901e-001	8.360489e-001	1.068902e+000	1.054598e+000	1.244151e+000	1.114771e+000	1.077031e+000	1.112501e+000	1.070492e+000	1.306519e+000	1.257513e+000	1.084519e+000	1.008476e+000	6.564173e-001	6.588997e-001	1.077345e+000	1.121973e+000	1.086867e+000	1.288520e+000	1.129225e+000	1.096816e+000	1.231238e+000	1.215735e+000	6.473889e-001	1.129430e+000	1.063541e+000	1.061406e+000	6.515694e-001	6.992698e-001	7.145649e-001	1.000362e+000	1.158767e+000	1.180629e+000	1.147484e+000	1.057318e+000	1.064957e+000	1.022281e+000	1.071375e+000	1.074637e+000	1.077054e+000	1.087909e+000	7.298479e-001	1.077504e+000	1.077222e+000	9.306983e-001	1.079476e+000	1.015566e+000	1.023536e+000	9.656723e-001	9.491059e-001	7.905566e-001	1.081135e+000	1.064420e+000	1.049285e+000	1.038230e+000	7.920899e-001	7.744194e-001	7.614410e-001	8.904214e-001	8.697377e-001	1.067503e+000	1.066189e+000	6.621375e-001	6.663971e-001	9.746016e-001	7.322764e-001	8.588484e-001	1.024442e+000	1.050337e+000	1.045375e+000	1.040230e+000	1.034796e+000	1.030434e+000	1.013347e+000	1.016724e+000	1.022567e+000	8.151975e-001	6.150534e-001	6.066334e-001	6.320735e-001	6.406419e-001	7.519267e-001	7.726070e-001	7.929655e-001	8.028456e-001	8.189777e-001	9.943897e-001	1.012685e+000	1.032969e+000	1.042123e+000	1.050041e+000	7.165243e-001	6.968573e-001	1.031041e+000	1.051664e+000	1.072686e+000	1.093203e+000	8.761706e-001	8.916355e-001	9.068106e-001	9.233213e-001	9.428250e-001	9.558729e-001	6.723615e-001	6.799874e-001	1.060451e+000	1.058060e+000	9.615472e-001	9.838262e-001	9.892927e-001	8.496218e-001	8.299685e-001	1.080180e+000	1.118669e+000	1.113890e+000	1.091289e+000	1.059902e+000	1.075167e+000	1.115054e+000	1.096123e+000	1.203135e+000	1.157885e+000	1.103864e+000	1.091400e+000	1.152230e+000	1.226209e+000	1.250756e+000	1.066202e+000	1.012922e+000	6.952022e-001	1.084204e+000	1.069578e+000	1.126122e+000	9.751598e-001	1.132969e+000	1.188624e+000	7.672560e-001	1.074768e+000	9.883283e-001	7.539720e-001	1.077717e+000	1.079104e+000	1.110711e+000	1.097077e+000	1.112623e+000	1.071007e+000	1.072823e+000	1.063288e+000	7.222677e-001	6.515623e-001	9.958786e-001	1.026106e+000	1.099809e+000	1.104106e+000	1.288566e+000	1.076731e+000	1.064666e+000	1.130242e+000	1.080903e+000	1.208156e+000	1.173104e+000	7.072511e-001	1.239919e+000	1.016109e+000	1.000826e+000	1.069383e+000	1.258077e+000	1.076103e+000	1.083136e+000	1.005655e+000	1.269520e+000	1.129415e+000	1.040670e+000	1.228588e+000	1.216478e+000	6.