# vtk DataFile Version 3.0
vtk output
ASCII
DATASET UNSTRUCTURED_GRID
POINTS 5233 float
9.997500e-001	-3.632897e-005	0.0	9.990000e-001	-1.452538e-004	0.0	9.977600e-001	-3.251112e-004	0.0	9.960200e-001	-5.769984e-004	0.0	9.937800e-001	-9.004365e-004	0.0	9.910500e-001	-1.293364e-003	0.0	9.878400e-001	-1.753610e-003	0.0	9.841300e-001	-2.283177e-003	0.0	9.799500e-001	-2.876826e-003	0.0	9.752800e-001	-3.536324e-003	0.0	9.701500e-001	-4.256269e-003	0.0	9.645400e-001	-5.038225e-003	0.0	9.584700e-001	-5.878077e-003	0.0	9.519400e-001	-6.774429e-003	0.0	9.449600e-001	-7.724467e-003	0.0	9.375400e-001	-8.725349e-003	0.0	9.296900e-001	-9.774221e-003	0.0	9.214000e-001	-1.087086e-002	0.0	9.127000e-001	-1.200973e-002	0.0	9.035800e-001	-1.319056e-002	0.0	8.940600e-001	-1.440916e-002	0.0	8.841500e-001	-1.566269e-002	0.0	8.738500e-001	-1.694956e-002	0.0	8.631800e-001	-1.826569e-002	0.0	8.521600e-001	-1.960709e-002	0.0	8.407700e-001	-2.097463e-002	0.0	8.290500e-001	-2.236196e-002	0.0	8.170100e-001	-2.376642e-002	0.0	8.046400e-001	-2.518764e-002	0.0	7.919700e-001	-2.662063e-002	0.0	7.790100e-001	-2.806277e-002	0.0	7.657800e-001	-2.951034e-002	0.0	7.522800e-001	-3.096181e-002	0.0	7.385200e-001	-3.241453e-002	0.0	7.245300e-001	-3.386377e-002	0.0	7.103200e-001	-3.530689e-002	0.0	6.958900e-001	-3.674225e-002	0.0	6.812700e-001	-3.816515e-002	0.0	6.664700e-001	-3.957289e-002	0.0	6.515000e-001	-4.096270e-002	0.0	6.363800e-001	-4.233084e-002	0.0	6.211300e-001	-4.367359e-002	0.0	6.057600e-001	-4.498807e-002	0.0	5.902800e-001	-4.627133e-002	0.0	5.747100e-001	-4.751951e-002	0.0	5.590600e-001	-4.872956e-002	0.0	5.433600e-001	-4.989684e-002	0.0	5.276100e-001	-5.101898e-002	0.0	5.118400e-001	-5.209138e-002	0.0	4.960500e-001	-5.311154e-002	0.0	4.802700e-001	-5.407492e-002	0.0	4.645100e-001	-5.497836e-002	0.0	4.487800e-001	-5.581860e-002	0.0	4.331100e-001	-5.659142e-002	0.0	4.175000e-001	-5.729417e-002	0.0	4.019700e-001	-5.792324e-002	0.0	3.865400e-001	-5.847521e-002	0.0	3.712300e-001	-5.894684e-002	0.0	3.560400e-001	-5.933562e-002	0.0	3.409900e-001	-5.963848e-002	0.0	3.261100e-001	-5.985254e-002	0.0	3.114000e-001	-5.997565e-002	0.0	2.968700e-001	-6.000550e-002	0.0	2.825500e-001	-5.994005e-002	0.0	2.684500e-001	-5.977766e-002	0.0	2.545700e-001	-5.951658e-002	0.0	2.409400e-001	-5.915586e-002	0.0	2.275700e-001	-5.869457e-002	0.0	2.144700e-001	-5.813197e-002	0.0	2.016600e-001	-5.746811e-002	0.0	1.891400e-001	-5.670228e-002	0.0	1.769300e-001	-5.583514e-002	0.0	1.650400e-001	-5.486709e-002	0.0	1.534900e-001	-5.379978e-002	0.0	1.422900e-001	-5.263443e-002	0.0	1.314400e-001	-5.137134e-002	0.0	1.209500e-001	-5.001187e-002	0.0	1.108500e-001	-4.856067e-002	0.0	1.011300e-001	-4.701715e-002	0.0	9.181000e-002	-4.538527e-002	0.0	8.290000e-002	-4.366791e-002	0.0	7.440000e-002	-4.186608e-002	0.0	6.633000e-002	-3.998514e-002	0.0	5.869000e-002	-3.802636e-002	0.0	5.149000e-002	-3.599338e-002	0.0	4.474000e-002	-3.389028e-002	0.0	3.844000e-002	-3.171811e-002	0.0	3.260000e-002	-2.948109e-002	0.0	2.723000e-002	-2.718420e-002	0.0	2.232000e-002	-2.482329e-002	0.0	1.790000e-002	-2.241365e-002	0.0	1.395000e-002	-1.994492e-002	0.0	1.049000e-002	-1.742916e-002	0.0	7.520000e-003	-1.486756e-002	0.0	5.040000e-003	-1.226032e-002	0.0	3.050000e-003	-9.605565e-003	0.0	1.560000e-003	-6.917518e-003	0.0	5.600000e-004	-4.173160e-003	0.0	6.000000e-005	-1.375330e-003	0.0	0.000000e+000	0.000000e+000	0.0	6.000000e-005	1.375330e-003	0.0	5.600000e-004	4.173160e-003	0.0	1.560000e-003	6.917518e-003	0.0	3.050000e-003	9.605565e-003	0.0	5.040000e-003	1.226032e-002	0.0	7.520000e-003	1.486756e-002	0.0	1.049000e-002	1.742916e-002	0.0	1.395000e-002	1.994492e-002	0.0	1.790000e-002	2.241365e-002	0.0	2.232000e-002	2.482329e-002	0.0	2.723000e-002	2.718420e-002	0.0	3.260000e-002	2.948109e-002	0.0	3.844000e-002	3.171811e-002	0.0	4.474000e-002	3.389028e-002	0.0	5.149000e-002	3.599338e-002	0.0	5.869000e-002	3.802636e-002	0.0	6.633000e-002	3.998514e-002	0.0	7.440000e-002	4.186608e-002	0.0	8.290000e-002	4.366791e-002	0.0	9.181000e-002	4.538527e-002	0.0	1.011300e-001	4.701715e-002	0.0	1.108500e-001	4.856067e-002	0.0	1.209500e-001	5.001187e-002	0.0	1.314400e-001	5.137134e-002	0.0	1.422900e-001	5.263443e-002	0.0	1.534900e-001	5.379978e-002	0.0	1.650400e-001	5.486709e-002	0.0	1.769300e-001	5.583514e-002	0.0	1.891400e-001	5.670228e-002	0.0	2.016600e-001	5.746811e-002	0.0	2.144700e-001	5.813197e-002	0.0	2.275700e-001	5.869457e-002	0.0	2.409400e-001	5.915586e-002	0.0	2.545700e-001	5.951658e-002	0.0	2.684500e-001	5.977766e-002	0.0	2.825500e-001	5.994005e-002	0.0	2.968700e-001	6.000550e-002	0.0	3.114000e-001	5.997565e-002	0.0	3.261100e-001	5.985254e-002	0.0	3.409900e-001	5.963848e-002	0.0	3.560400e-001	5.933562e-002	0.0	3.712300e-001	5.894684e-002	0.0	3.865400e-001	5.847521e-002	0.0	4.019700e-001	5.792324e-002	0.0	4.175000e-001	5.729417e-002	0.0	4.331100e-001	5.659142e-002	0.0	4.487800e-001	5.581860e-002	0.0	4.645100e-001	5.497836e-002	0.0	4.802700e-001	5.407492e-002	0.0	4.960500e-001	5.311154e-002	0.0	5.118400e-001	5.209138e-002	0.0	5.276100e-001	5.101898e-002	0.0	5.433600e-001	4.989684e-002	0.0	5.590600e-001	4.872956e-002	0.0	5.747100e-001	4.751951e-002	0.0	5.902800e-001	4.627133e-002	0.0	6.057600e-001	4.498807e-002	0.0	6.211300e-001	4.367359e-002	0.0	6.363800e-001	4.233084e-002	0.0	6.515000e-001	4.096270e-002	0.0	6.664700e-001	3.957289e-002	0.0	6.812700e-001	3.816515e-002	0.0	6.958900e-001	3.674225e-002	0.0	7.103200e-001	3.530689e-002	0.0	7.245300e-001	3.386377e-002	0.0	7.385200e-001	3.241453e-002	0.0	7.522800e-001	3.096181e-002	0.0	7.657800e-001	2.951034e-002	0.0	7.790100e-001	2.806277e-002	0.0	7.919700e-001	2.662063e-002	0.0	8.046400e-001	2.518764e-002	0.0	8.170100e-001	2.376642e-002	0.0	8.290500e-001	2.236196e-002	0.0	8.407700e-001	2.097463e-002	0.0	8.521600e-001	1.960709e-002	0.0	8.631800e-001	1.826569e-002	0.0	8.738500e-001	1.694956e-002	0.0	8.841500e-001	1.566269e-002	0.0	8.940600e-001	1.440916e-002	0.0	9.035800e-001	1.319056e-002	0.0	9.127000e-001	1.200973e-002	0.0	9.214000e-001	1.087086e-002	0.0	9.296900e-001	9.774221e-003	0.0	9.375400e-001	8.725349e-003	0.0	9.449600e-001	7.724467e-003	0.0	9.519400e-001	6.774429e-003	0.0	9.584700e-001	5.878077e-003	0.0	9.645400e-001	5.038225e-003	0.0	9.701500e-001	4.256269e-003	0.0	9.752800e-001	3.536324e-003	0.0	9.799500e-001	2.876826e-003	0.0	9.841300e-001	2.283177e-003	0.0	9.878400e-001	1.753610e-003	0.0	9.910500e-001	1.293364e-003	0.0	9.937800e-001	9.004365e-004	0.0	9.960200e-001	5.769984e-004	0.0	9.977600e-001	3.251112e-004	0.0	9.990000e-001	1.452538e-004	0.0	9.997500e-001	3.632897e-005	0.0	1.000000e+000	0.000000e+000	0.0	1.984229e+001	2.506660e+000	0.0	1.937166e+001	4.973800e+000	0.0	1.859553e+001	7.362490e+000	0.0	1.752613e+001	9.635070e+000	0.0	1.618034e+001	1.175571e+001	0.0	1.457937e+001	1.369094e+001	0.0	1.274848e+001	1.541027e+001	0.0	1.071654e+001	1.688656e+001	0.0	8.515590e+000	1.809654e+001	0.0	6.180340e+000	1.902113e+001	0.0	3.747630e+000	1.964575e+001	0.0	1.255810e+000	1.996053e+001	0.0	-1.255810e+000	1.996053e+001	0.0	-3.747630e+000	1.964574e+001	0.0	-6.180340e+000	1.902113e+001	0.0	-8.515590e+000	1.809654e+001	0.0	-1.071654e+001	1.688656e+001	0.0	-1.274848e+001	1.541026e+001	0.0	-1.457937e+001	1.369094e+001	0.0	-1.618034e+001	1.175570e+001	0.0	-1.752613e+001	9.635070e+000	0.0	-1.859553e+001	7.362490e+000	0.0	-1.937166e+001	4.973800e+000	0.0	-1.984229e+001	2.506660e+000	0.0	-2.000000e+001	0.000000e+000	0.0	-1.984229e+001	-2.506670e+000	0.0	-1.937166e+001	-4.973800e+000	0.0	-1.859553e+001	-7.362490e+000	0.0	-1.752613e+001	-9.635080e+000	0.0	-1.618034e+001	-1.175571e+001	0.0	-1.457937e+001	-1.369094e+001	0.0	-1.274848e+001	-1.541027e+001	0.0	-1.071653e+001	-1.688656e+001	0.0	-8.515580e+000	-1.809654e+001	0.0	-6.180340e+000	-1.902113e+001	0.0	-3.747620e+000	-1.964575e+001	0.0	-1.255810e+000	-1.996053e+001	0.0	1.255810e+000	-1.996053e+001	0.0	3.747630e+000	-1.964574e+001	0.0	6.180340e+000	-1.902113e+001	0.0	8.515590e+000	-1.809654e+001	0.0	1.071654e+001	-1.688656e+001	0.0	1.274848e+001	-1.541026e+001	0.0	1.457937e+001	-1.369094e+001	0.0	1.618034e+001	-1.175570e+001	0.0	1.752614e+001	-9.635070e+000	0.0	1.859553e+001	-7.362490e+000	0.0	1.937166e+001	-4.973790e+000	0.0	1.984229e+001	-2.506660e+000	0.0	2.000000e+001	0.000000e+000	0.0	6.071847e-002	-4.599300e-002	0.0	6.602584e-001	-5.397924e-002	0.0	4.259462e-001	7.123173e-002	0.0	6.898893e-001	5.084802e-002	0.0	3.793152e-001	-7.273116e-002	0.0	9.994604e-001	-7.202256e-004	0.0	9.985440e-001	-1.312423e-003	0.0	7.737237e-001	-4.090969e-002	0.0	6.898893e-001	-5.084802e-002	0.0	-1.456769e-003	6.464601e-003	0.0	7.467285e-001	-4.428984e-002	0.0	5.836398e-001	6.115854e-002	0.0	9.927702e-001	-3.577733e-003	0.0	9.898650e-001	-4.450375e-003	0.0	5.991925e-001	5.980916e-002	0.0	7.187526e-001	-4.760665e-002	0.0	-1.597618e-003	7.671995e-004	0.0	9.864674e-001	-5.394793e-003	0.0	9.825871e-001	-6.398977e-003	0.0	-1.456774e-003	-6.464600e-003	0.0	6.451948e-001	-5.549610e-002	0.0	8.243215e-001	-3.409983e-002	0.0	7.996157e-001	-3.751255e-002	0.0	3.487901e-001	7.326090e-002	0.0	8.477112e-001	-3.071909e-002	0.0	2.474256e-001	7.182160e-002	0.0	8.697233e-001	-2.738134e-002	0.0	9.916188e-003	2.185203e-002	0.0	8.902508e-001	-2.411717e-002	0.0	7.700293e-002	-5.054436e-002	0.0	9.092206e-001	-2.095307e-002	0.0	-1.944578e-003	-3.190372e-003	0.0	9.421664e-001	-1.502079e-002	0.0	9.265514e-001	-1.791177e-002	0.0	1.789678e-002	-2.766280e-002	0.0	4.259462e-001	-7.123173e-002	0.0	8.588986e-001	-2.904064e-002	0.0	9.560213e-001	-1.230722e-002	0.0	9.782180e-001	-7.479396e-003	0.0	9.680592e-001	-9.783205e-003	0.0	1.582863e-001	-6.490557e-002	0.0	8.999374e-001	-2.252139e-002	0.0	7.603588e-001	-4.260503e-002	0.0	9.971186e-001	-2.046344e-003	0.0	5.991925e-001	-5.980916e-002	0.0	4.416505e-001	-7.055456e-002	0.0	5.365104e-001	-6.487405e-002	0.0	4.732224e-001	-6.895566e-002	0.0	5.048788e-001	-6.705339e-002	0.0	4.890394e-001	-6.804024e-002	0.0	1.249513e-001	-6.028257e-002	0.0	2.780447e-002	-3.325805e-002	0.0	3.947663e-001	-7.232395e-002	0.0	4.619013e-002	-4.112
[...]
POINT_DATA 5233

SCALARS Density float 1
LOOKUP_TABLE default
1.186886e+000	1.162704e+000	1.147836e+000	1.135636e+000	1.125239e+000	1.116237e+000	1.107997e+000	1.100473e+000	1.093453e+000	1.086858e+000	1.080605e+000	1.074635e+000	1.068908e+000	1.063388e+000	1.058053e+000	1.052883e+000	1.047858e+000	1.042958e+000	1.038176e+000	1.033494e+000	1.028910e+000	1.024416e+000	1.019991e+000	1.015642e+000	1.011345e+000	1.007098e+000	1.002888e+000	9.987143e-001	9.945691e-001	9.904514e-001	9.863590e-001	9.822780e-001	9.781765e-001	9.740541e-001	9.699128e-001	9.657453e-001	9.615603e-001	9.573267e-001	9.530528e-001	9.487173e-001	9.443152e-001	9.398346e-001	9.352749e-001	9.306279e-001	9.258891e-001	9.210473e-001	9.161074e-001	9.111071e-001	9.060951e-001	9.010512e-001	8.958090e-001	8.900993e-001	8.839365e-001	8.783015e-001	8.749618e-001	8.746661e-001	8.746323e-001	8.677911e-001	8.473132e-001	8.167324e-001	7.922984e-001	7.823376e-001	7.822536e-001	7.855712e-001	7.891935e-001	7.925581e-001	7.961080e-001	8.000855e-001	8.044766e-001	8.091638e-001	8.141722e-001	8.196879e-001	8.259269e-001	8.328877e-001	8.404138e-001	8.483344e-001	8.567147e-001	8.657401e-001	8.754449e-001	8.858452e-001	8.970330e-001	9.090418e-001	9.219962e-001	9.359854e-001	9.511703e-001	9.677909e-001	9.860354e-001	1.006224e+000	1.028796e+000	1.054039e+000	1.082496e+000	1.114703e+000	1.150750e+000	1.190640e+000	1.233323e+000	1.276830e+000	1.314441e+000	1.345297e+000	1.351020e+000	1.340962e+000	1.334252e+000	1.303452e+000	1.239157e+000	1.179917e+000	1.121344e+000	1.067598e+000	1.020860e+000	9.810571e-001	9.470348e-001	9.180472e-001	8.931009e-001	8.712125e-001	8.519590e-001	8.347937e-001	8.193935e-001	8.055663e-001	7.929371e-001	7.811418e-001	7.700330e-001	7.595380e-001	7.497610e-001	7.408105e-001	7.325663e-001	7.246403e-001	7.167774e-001	7.090794e-001	7.019444e-001	6.953806e-001	6.891361e-001	6.829569e-001	6.769551e-001	6.713400e-001	6.662919e-001	6.617592e-001	6.576555e-001	6.538317e-001	6.501907e-001	6.466942e-001	6.432478e-001	6.398676e-001	6.365940e-001	6.335716e-001	6.308718e-001	6.283623e-001	6.258590e-001	6.233358e-001	6.208599e-001	6.186063e-001	6.165585e-001	6.149287e-001	6.134174e-001	6.120848e-001	6.113973e-001	6.121952e-001	6.132457e-001	6.106102e-001	6.054929e-001	6.870338e-001	8.890227e-001	9.967175e-001	9.948684e-001	9.849838e-001	9.850960e-001	9.866273e-001	9.871181e-001	9.880013e-001	9.895160e-001	9.914321e-001	9.935760e-001	9.959813e-001	9.985996e-001	1.001399e+000	1.004377e+000	1.007524e+000	1.010811e+000	1.014254e+000	1.017824e+000	1.021542e+000	1.025384e+000	1.029371e+000	1.033486e+000	1.037746e+000	1.042151e+000	1.046709e+000	1.051429e+000	1.056327e+000	1.061419e+000	1.066720e+000	1.072262e+000	1.078078e+000	1.084218e+000	1.090756e+000	1.097760e+000	1.105433e+000	1.113758e+000	1.123443e+000	1.134550e+000	1.148533e+000	1.164397e+000	1.159983e+000	9.989991e-001	9.996897e-001	9.997380e-001	9.996049e-001	9.995061e-001	9.993835e-001	9.992382e-001	9.990576e-001	9.988621e-001	9.987278e-001	9.986576e-001	9.987360e-001	9.989268e-001	9.992852e-001	9.995855e-001	9.998318e-001	9.999733e-001	1.000064e+000	1.000125e+000	1.000154e+000	1.000173e+000	1.000182e+000	1.000190e+000	1.000199e+000	1.000207e+000	1.000218e+000	1.000237e+000	1.000261e+000	1.000294e+000	1.000344e+000	1.000401e+000	1.000494e+000	1.000585e+000	1.000741e+000	1.000888e+000	1.001071e+000	1.001266e+000	1.001349e+000	1.001377e+000	1.001278e+000	1.001163e+000	1.000992e+000	1.000833e+000	1.000676e+000	1.000534e+000	1.000366e+000	1.000233e+000	1.000234e+000	9.994996e-001	9.985282e-001	9.440058e-001	9.524520e-001	6.285266e-001	9.865535e-001	8.782370e-001	1.165956e+000	1.153879e+000	9.854826e-001	9.608886e-001	1.285433e+000	9.773682e-001	6.132357e-001	1.120256e+000	1.111831e+000	6.072800e-001	9.691750e-001	1.337544e+000	1.104095e+000	1.096956e+000	1.329631e+000	9.481535e-001	1.001811e+000	9.935958e-001	6.433194e-001	1.010150e+000	6.711132e-001	1.018673e+000	1.041080e+000	1.027437e+000	9.162647e-001	1.036529e+000	1.346537e+000	1.055967e+000	1.046011e+000	1.092269e+000	8.791879e-001	1.014387e+000	1.066531e+000	1.090242e+000	1.077872e+000	8.380766e-001	1.031938e+000	9.814361e-001	1.140500e+000	9.348207e-001	8.836904e-001	9.158482e-001	8.958055e-001	9.061080e-001	9.011530e-001	8.626007e-001	1.038839e+000	8.797394e-001	9.766816e-001	8.781237e-001	7.892876e-001	8.351747e-001	1.016012e+000	7.895052e-001	1.050924e+000	8.457812e-001	8.192535e-001	9.039138e-001	8.817076e-001	9.255268e-001	8.310541e-001	9.393428e-001	1.023024e+000	1.064147e+000	1.129742e+000	1.194226e+000	9.672365e-001	1.041215e+000	1.061163e+000	1.083903e+000	1.237767e+000	1.005963e+000	8.006543e-001	9.207298e-001	9.732744e-001	9.895305e-001	8.717892e-001	8.092112e-001	9.302235e-001	9.566959e-001	9.596436e-001	1.232405e+000	1.123368e+000	8.643871e-001	8.248328e-001	1.200019e+000	8.047059e-001	8.924209e-001	7.865605e-001	7.970217e-001	8.898167e-001	9.650417e-001	1.324023e+000	1.304436e+000	6.143553e-001	1.342963e+000	9.108961e-001	8.324187e-001	8.671275e-001	7.488851e-001	6.312103e-001	1.128165e+000	6.158089e-001	6.209716e-001	1.075925e+000	1.065056e+000	1.025231e+000	6.189975e-001	6.258719e-001	6.367917e-001	1.041413e+000	1.033050e+000	7.914245e-001	1.081778e+000	1.059968e+000	1.050358e+000	7.684582e-001	8.176244e-001	6.581443e-001	6.664497e-001	7.080431e-001	6.505591e-001	6.233398e-001	6.339412e-001	7.233247e-001	7.401454e-001	7.838475e-001	6.945783e-001	6.819703e-001	1.002367e+000	6.155501e-001	9.910969e-001	9.892797e-001	9.995365e-001	9.948226e-001	1.011193e+000	1.005039e+000	1.029078e+000	1.017943e+000	1.055072e+000	1.037162e+000	1.070371e+000	1.014505e+000	1.021525e+000	1.002197e+000	1.008047e+000	9.928387e-001	9.970727e-001	9.885757e-001	9.898600e-001	9.956585e-001	9.886040e-001	6.139908e-001	6.175226e-001	6.881451e-001	6.762967e-001	7.154073e-001	7.012085e-001	8.487951e-001	7.316873e-001	1.001699e+000	8.877230e-001	8.140860e-001	1.134341e+000	1.072089e+000	9.976874e-001	8.049288e-001	9.109709e-001	1.186616e+000	9.371519e-001	1.085356e+000	7.795634e-001	8.040465e-001	6.621551e-001	7.582373e-001	1.087974e+000	1.094568e+000	6.542995e-001	1.101726e+000	1.109498e+000	6.469261e-001	6.399118e-001	1.045808e+000	1.175756e+000	1.140258e+000	1.152219e+000	9.437810e-001	9.953893e-001	1.118240e+000	6.172091e-001	1.270435e+000	1.157548e+000	9.295857e-001	8.539789e-001	7.934057e-001	8.162692e-001	1.264573e+000	1.303261e+000	7.984343e-001	9.645462e-001	1.039631e+000	1.188362e+000	6.180359e-001	9.604291e-001	9.887888e-001	1.107234e+000	8.027659e-001	1.013343e+000	1.005037e+000	9.112754e-001	1.309881e+000	8.199068e-001	1.124863e+000	1.069602e+000	8.520321e-001	9.686358e-001	9.520757e-001	8.903029e-001	9.238201e-001	8.821375e-001	1.030570e+000	9.927813e-001	1.090815e+000	9.817251e-001	9.924353e-001	1.011682e+000	7.683438e-001	9.883089e-001	7.232881e-001	1.021663e+000	1.097719e+000	6.513943e-001	6.205570e-001	1.058561e+000	1.025223e+000	1.104609e+000	1.063414e+000	1.085040e+000	6.827677e-001	6.553592e-001	6.885406e-001	7.789043e-001	9.562843e-001	8.253367e-001	1.050881e+000	7.398599e-001	8.632215e-001	1.073730e+000	1.112277e+000	1.028931e+000	8.442580e-001	1.190268e+000	1.130318e+000	1.120708e+000	1.133667e+000	1.223189e+000	1.221767e+000	1.339028e+000	1.335218e+000	1.096060e+000	1.200648e+000	9.518004e-001	1.143051e+000	1.123206e+000	6.347947e-001	9.207188e-001	1.100076e+000	1.021828e+000	6.070777e-001	1.114849e+000	1.330973e+000	8.851050e-001	6.378348e-001	1.009169e+000	6.678915e-001	1.017556e+000	1.026156e+000	9.372852e-001	1.035052e+000	1.044320e+000	1.059044e+000	1.045480e+000	1.064240e+000	1.075170e+000	1.093356e+000	8.693145e-001	9.807866e-001	9.847959e-001	1.132539e+000	8.960729e-001	9.015108e-001	9.064787e-001	1.069761e+000	8.819689e-001	8.820945e-001	8.254870e-001	1.003109e+000	1.049106e+000	1.054009e+000	8.604454e-001	8.995831e-001	9.254333e-001	9.391066e-001	1.080951e+000	1.087000e+000	9.726791e-001	9.767601e-001	8.887698e-001	8.787078e-001	9.300850e-001	9.346312e-001	9.846248e-001	9.675727e-001	1.155625e+000	8.551653e-001	8.755183e-001	8.373470e-001	8.311104e-001	8.148714e-001	8.102838e-001	7.947364e-001	7.941474e-001	8.061875e-001	1.327672e+000	1.255158e+000	8.820005e-001	1.091183e+000	6.187771e-001	6.222060e-001	6.243955e-001	6.266333e-001	1.079255e+000	1.068475e+000	1.040796e+000	6.291795e-001	6.318884e-001	6.410266e-001	1.036711e+000	1.053879e+000	8.305817e-001	8.461666e-001	6.774622e-001	6.724807e-001	7.312825e-001	7.491280e-001	7.585593e-001	1.000575e+000	9.926901e-001	9.917050e-001	9.982779e-001	1.008674e+000	1.032747e+000	1.018189e+000	1.014881e+000	1.005806e+000	1.003098e+000	9.961558e-001	9.943401e-001	9.915719e-001	9.909999e-001	1.004125e+000	9.313439e-001	6.182484e-001	6.180712e-001	6.737837e-001	6.095743e-001	6.946633e-001	7.013458e-001	7.083767e-001	7.157697e-001	1.014591e+000	9.029752e-001	9.264964e-001	9.968287e-001	1.000923e+000	9.112352e-001	9.159596e-001	1.178957e+000	9.526117e-001	7.904314e-001	8.029010e-001	6.593548e-001	6.635194e-001	6.442755e-001	6.477044e-001	1.049370e+000	1.045007e+000	9.434944e-001	9.478246e-001	1.023284e+000	1.286067e+000	8.023363e-001	1.310592e+000	8.861900e-001	8.043385e-001	9.923552e-001	9.213087e-001	1.042771e+000	1.100279e+000	1.094002e+000	1.066702e+000	1.172454e+000	1.107402e+000	1.140782e+000	1.155387e+000	1.134107e+000	1.180674e+000	1.099433e+000	1.309271e+000	9.192260e-001	1.047418e+000	1.110021e+000	6.209128e-001	1.155345e+000	1.212194e+000	9.684902e-001	1.268253e+000	9.724697e-001	1.125627e+000	1.020779e+000	1.182687e+000	8.191541e-001	1.016603e+000	9.644605e-001	1.117845e+000	1.153751e+000	1.082296e+000	6.245467e-001	1.057274e+000	1.003156e+000	1.114263e+000	6.265782e-001	6.790909e-001	6.605563e-001	7.406453e-001	8.441048e-001	1.149143e+000	1.288158e+000	1.244030e+000	1.025712e+000	1.281788e+000	1.072659e+000	9.318433e-001	1.329670e+000	8.587204e-001	8.967070e-001	1.074773e+000	1.095215e+000	1.012164e+000	1.001480e+000	9.903920e-001	1.088046e+000	1.061897e+000	1.028731e+000	1.025131e+000	6.648889e-001	6.740551e-001	6.959284e-001	7.905462e-001	9.562976e-001	9.604003e-001	8.317700e-001	1.059400e+000	7.490941e-001	1.076893e+000	1.121770e+000	1.133224e+000	1.210783e+000	1.240992e+000	1.321335e+000	1.051532e+000	1.172311e+000	1.162325e+000	1.078203e+000	1.103015e+000	6.168377e-001	8.915078e-001	6.421639e-001	1.008347e+000	1.012461e+000	1.025012e+000	1.029333e+000	9.599058e-001	9.454017e-001	1.033701e+000	1.038202e+000	1.062116e+000	1.067307e+000	1.096375e+000	9.844476e-001	9.884236e-001	1.125753e+000	9.021079e-001	9.072522e-001	8.861364e-001	8.875998e-001	1.030321e+000	1.052187e+000	1.057066e+000	8.765731e-001	8.673643e-001	9.259078e-001	9.304516e-001	1.083983e+000	1.090000e+000	9.764832e-001	9.804850e-001	9.074481e-001	8.963118e-001	8.860657e-001	9.349415e-001	9.393445e-001	1.010912e+000	9.926533e-001	9.755907e-001	8.450756e-001	8.701086e-001	8.831568e-001	8.511293e-001	8.442401e-001	8.378182e-001	8.261737e-001	8.210345e-001	8.018825e-001	8.047019e-001	8.164246e-001	8.970233e-001	6.283429e-001	6.306963e-001	1.071681e+000	6.332190e-001	6.359304e-001	6.388660e-001	6.456417e-001	1.040169e+000	8.603018e-001	8.779477e-001	6.843151e-001	6.900380e-001	7.583896e-001	7.689437e-001	7.797124e-001	9.943208e-001	1.036245e+000	1.032408e+000	1.021692e+000	1.018348e+000	1.015258e+000	1.009208e+000	1.006511e+000	1.003904e+000	9.993653e-001	9.972775e-001	9.957116e-001	9.941143e-001	9.944592e-001	9.927768e-001	1.000591e+000	6.229438e-001	6.237308e-001	8.246461e-001	6.296442e-001	6.012579e-001	7.022670e-001	7.088633e-001	7.162434e-001	7.240941e-001	7.324196e-001	9.178446e-001	9.411645e-001	9.963120e-001	1.000309e+000	1.004290e+000	9.120162e-001	9.166722e-001	9.670436e-001	9.949763e-001	8.022802e-001	8.152288e-001	8.291501e-001	6.693957e-001	6.493373e-001	6.529410e-001	6.566055e-001	1.052799e+000	1.048457e+000	1.044242e+000	9.436830e-001	9.479457e-001	9.521517e-001	8.122245e-001	8.082345e-001	1.289966e+000	9.273968e-001	1.115051e+000	1.084928e+000	9.263741e-001	1.288767e+000	1.142208e+000	1.046008e+000	1.050714e+000	1.056240e+000	1.102157e+000	6.340784e-001	1.268486e+000	1.065291e+000	1.200844e+000	1.064974e+000	1.108494e+000	1.226245e+000	1.008577e+000	1.197206e+000	1.157999e+000	1.175650e+000	9.958887e-001	8.668383e-001	1.101253e+000	8.905871e-001	9.401016e-001	8.982560e-001	8.127280e-001	1.090448e+000	6.277160e-001	1.060380e+000	1.055947e+000	1.001856e+000	7.605318e-001	6.930853e-001	1.105470e+000	8.741161e-001	1.020175e+000	1.129208e+000	1.096193e+000	1.126822e+000	1.081092e+000	1.124693e+000	9.684181e-001	1.226218e+000	9.726494e-001	9.763134e-001	1.149869e+000	1.112283e+000	1.175512e+000	1.012001e+000	6.311112e-001	6.767318e-001	1.259844e+000	1.097276e+000	1.001343e+000	1.028496e+000	6.721087e-001	6.820272e-001	6.871827e-001	9.604348e-001	9.647468e-001	1.079608e+000	1.130039e+000	1.164137e+000	1.250074e+000	1.302403e+000	1.078102e+000	1.075602e+000	1.098990e+000	6.180791e-001	1.011948e+000	1.015984e+000	1.024305e+000	1.028495e+000	9.678306e-001	9.535110e-001	1.032709e+000	1.037080e+000	1.041508e+000	1.065153e+000	1.070317e+000	9.879737e-001	9.921255e-001	1.119459e+000	9.032663e-001	9.084696e-001	8.914095e-001	8.939988e-001	1.055404e+000	1.060147e+000	8.847069e-001	8.748983e-001	9.312884e-001	1.086772e+000	1.092758e+000	9.803717e-001	9.847065e-001	9.154956e-001	9.044973e-001	8.945315e-001	9.353283e-001	9.400589e-001	1.036801e+000	1.017891e+000	9.997242e-001	9.830393e-001	8.387516e-001	8.626061e-001	8.805415e-001	8.886236e-001	8.594397e-001	8.524030e-001	8.456938e-001	8.394539e-001	8.337519e-001	8.203890e-001	8.127786e-001	8.285690e-001	6.361566e-001	1.074567e+000	1.069677e+000	6.387553e-001	6.414064e-001	6.445590e-001	6.477106e-001	6.515438e-001	8.922760e-001	9.119510e-001	6.988306e-001	7.054024e-001	7.696945e-001	7.799103e-001	7.915696e-001	8.034946e-001	1.039567e+000	1.035795e+000	1.032041e+000	1.024907e+000	1.021675e+000	1.018421e+000	1.015136e+000	1.009509e+000	1.006676e+000	1.004043e+000	9.996567e-001	9.978529e-001	9.960093e-001	9.945236e-001	9.937777e-001	9.937904e-001	9.936549e-001	6.307790e-001	6.279767e-001	9.348979e-001	7.125328e-001	6.276493e-001	6.063952e-001	7.116580e-001	7.186647e-001	7.255006e-001	7.335296e-001	7.418932e-001	7.510515e-001	9.324216e-001	9.545441e-001	9.999146e-001	1.004126e+000	1.007965e+000	9.134582e-001	9.172093e-001	9.222165e-001	9.796944e-001	1.006573e+000	1.034588e+000	8.154042e-001	8.281882e-001	8.425863e-001	8.578578e-001	6.553262e-001	6.595888e-001	6.635495e-001	6.675133e-001	1.043516e+000	1.051633e+000	1.047556e+000	9.439427e-001	9.484958e-001	9.522855e-001	9.567075e-001	8.238901e-001	8.196360e-001	8.157216e-001	1.145682e+000	1.111197e+000	1.078373e+000	1.152497e+000	1.168525e+000	9.782042e-001	9.359916e-001	1.190670e+000	1.081932e+000	1.233505e+000	1.080346e+000	8.766282e-001	7.832122e-001	1.098658e+000	1.185366e+000	1.263478e+000	1.310009e+000	1.310440e+000	1.300624e+000	1.250429e+000	1.122606e+000	6.854763e-001	1.083731e+000	1.107372e+000	1.053685e+000	9.972824e-001	8.967241e-001	1.103086e+000	1.042597e+000	1.054659e+000	6.349408e-001	6.388303e-001	9.975488e-001	1.000120e+000	6.422933e-001	9.293671e-001	6.788708e-001	1.097656e+000	9.485986e-001	1.143152e+000	1.086993e+000	1.305511e+000	1.168659e+000	1.158026e+000	1.049111e+000	1.060997e+000	1.268559e+000	1.069891e+000	1.212572e+000	1.063147e+000	1.210934e+000	1.154541e+000	1.162275e+000	1.123572e+000	8.248940e-001	8.239241e-001	1.092183e+000	6.221585e-001	1.058840e+000	1.101090e+000	9.706471e-001	1.238850e+000	6.893748e-001	6.967915e-001	7.011425e-001	9.628193e-001	1.127318e+000	1.156587e+000	1.280775e+000	1.102356e+000	1.015837e+000	1.019340e+000	1.023638e+000	1.027664e+000	9.617793e-001	9.762542e-001	1.032031e+000	1.036090e+000	1.040392e+000	1.045180e+000	1.068128e+000	1.073180e+000	9.901134e-001	1.113566e+000	9.040084e-001	9.093154e-001	8.969538e-001	9.005153e-001	1.058701e+000	1.063200e+000	8.926814e-001	8.822773e-001	1.089335e+000	1.095135e+000	9.847292e-001	9.237835e-001	9.120843e-001	9.046690e-001	9.382558e-001	1.042516e+000	1.024294e+000	1.006728e+000	9.912969e-001	8.372931e-001	8.544877e-001	8.738376e-001	8.880120e-001	8.941998e-001	8.673363e-001	8.617896e-001	8.530181e-001	8.483369e-001	8.408759e-001	1.076991e+000	1.072271e+000	1.067659e+000	6.442862e-001	6.481050e-001	6.500638e-001	6.545436e-001	6.570686e-001	9.067206e-001	9.264927e-001	7.093678e-001	7.142082e-001	7.902120e-001	8.036581e-001	8.169616e-001	1.038773e+000	1.034942e+000	1.031332e+000	1.027688e+000	1.024273e+000	1.020886e+000	1.017437e+000	1.012799e+000	1.008753e+000	1.004433e+000	9.952410e-001	9.914332e-001	1.004385e+000	7.398746e-001	6.219513e-001	7.231435e-001	7.281666e-001	7.376662e-001	7.429943e-001	7.535667e-001	7.626486e-001	7.726356e-001	9.469928e-001	9.679259e-001	1.003840e+000	1.007632e+000	1.011500e+000	9.150333e-001	9.209513e-001	9.910146e-001	1.016906e+000	1.042696e+000	8.298324e-001	8.427782e-001	8.569055e-001	8.733297e-001	8.897627e-001	6.622145e-001	6.652638e-001	6.709396e-001	6.756503e-001	1.050678e+000	1.046397e+000	9.467296e-001	9.548581e-001	8.371917e-001	8.308980e-001	8.282903e-001	8.233061e-001	1.148733e+000	1.135582e+000	1.180616e+000	1.276464e+000	1.167774e+000	1.085933e+000	1.093454e+000	1.220273e+000	1.065465e+000	1.125776e+000	1.096985e+000	1.261532e+000	1.082236e+000	1.160948e+000	6.901210e-001	1.152444e+000	1.123984e+000	1.196569e+000	1.140956e+000	1.080755e+000	9.284270e-001	1.088480e+000	8.371744e-001	1.056709e+000	1.049988e+000	9.533149e-001	9.443068e-001	8.807110e-001	1.232973e+000	9.027115e-001	9.711607e-001	9.579479e-001	8.099674e-001	1.078818e+000	1.042723e+000	1.242209e+000	1.098626e+000	1.075772e+000	1.147263e+000	1.083499e+000	1.307317e+000	1.248484e+000	1.102746e+000	9.833786e-001	6.488438e-001	6.520034e-001	1.098511e+000	1.155299e+000	1.113962e+000	1.285524e+000	1.162163e+000	1.064920e+000	1.217520e+000	1.199631e+000	6.356316e-001	1.101638e+000	1.061461e+000	1.056998e+000	6.429485e-001	7.015338e-001	7.145619e-001	9.764292e-001	1.149232e+000	1.173850e+000	1.121934e+000	1.021010e+000	1.028770e+000	9.842419e-001	1.037022e+000	1.044091e+000	1.070868e+000	1.108643e+000	9.074843e-001	1.061724e+000	1.066090e+000	8.959759e-001	1.091316e+000	9.893281e-001	9.953995e-001	9.271961e-001	9.126503e-001	9.366637e-001	1.047583e+000	1.029243e+000	1.012560e+000	1.001132e+000	8.581450e-001	8.872809e-001	9.006425e-001	8.657169e-001	8.526066e-001	1.074287e+000	1.069886e+000	6.587068e-001	6.659826e-001	9.398080e-001	7.288213e-001	8.300083e-001	1.006525e+000	1.035312e+000	1.027940e+000	1.021080e+000	1.015470e+000	1.010880e+000	1.002289e+000	9.976000e-001	9.905623e-001	9.959543e-001	1.017352e+000	9.077546e-001	6.618620e-001	6.236574e-001	7.441069e-001	7.599822e-001	7.757155e-001	7.829283e-001	7.960766e-001	9.609373e-001	9.809883e-001	1.002354e+000	1.008969e+000	1.015258e+000	9.151470e-001	9.215834e-001	1.001702e+000	1.025340e+000	1.049654e+000	1.073516e+000	8.449764e-001	8.582209e-001	8.720146e-001	8.880872e-001	9.073163e-001	9.198419e-001	6.742994e-001	6.830378e-001	1.053232e+000	1.049044e+000	9.451986e-001	9.611476e-001	9.688857e-001	8.419419e-001	8.350488e-001	1.103106e+000	1.150347e+000	1.144961e+000	1.119850e+000	1.027242e+000	1.094299e+000	1.149438e+000	1.121272e+000	1.187529e+000	1.136439e+000	1.131916e+000	1.113752e+000	1.142345e+000	1.222646e+000	1.242821e+000	1.071539e+000	9.882366e-001	6.979345e-001	1.109822e+000	1.041587e+000	1.100824e+000	9.439137e-001	1.120669e+000	1.171067e+000	9.061573e-001	1.059807e+000	9.596975e-001	9.356402e-001	1.082799e+000	1.087769e+000	1.083662e+000	1.068627e+000	1.147346e+000	1.084728e+000	1.089228e+000	1.063370e+000	7.216455e-001	6.269820e-001	9.747676e-001	9.913843e-001	1.131631e+000	1.136881e+000	1.287434e+000	1.077932e+000	1.067292e+000	1.162613e+000	1.092965e+000	1.203635e+000	1.153579e+000	9.283107e-001	1.230083e+000	9.814951e-001	9.657831e-001	1.080248e+000	1.256121e+000	1.073273e+000	1.098235e+000	9.818747e-001	1.264725e+000	1.162155e+000	1.007092e+000	1.216805e+000	1.202819e+000	6.