# vtk DataFile Version 3.0
vtk output
ASCII
DATASET UNSTRUCTURED_GRID
POINTS 5233 float
9.997500e-001	-3.632897e-005	0.0	9.990000e-001	-1.452538e-004	0.0	9.977600e-001	-3.251112e-004	0.0	9.960200e-001	-5.769984e-004	0.0	9.937800e-001	-9.004365e-004	0.0	9.910500e-001	-1.293364e-003	0.0	9.878400e-001	-1.753610e-003	0.0	9.841300e-001	-2.283177e-003	0.0	9.799500e-001	-2.876826e-003	0.0	9.752800e-001	-3.536324e-003	0.0	9.701500e-001	-4.256269e-003	0.0	9.645400e-001	-5.038225e-003	0.0	9.584700e-001	-5.878077e-003	0.0	9.519400e-001	-6.774429e-003	0.0	9.449600e-001	-7.724467e-003	0.0	9.375400e-001	-8.725349e-003	0.0	9.296900e-001	-9.774221e-003	0.0	9.214000e-001	-1.087086e-002	0.0	9.127000e-001	-1.200973e-002	0.0	9.035800e-001	-1.319056e-002	0.0	8.940600e-001	-1.440916e-002	0.0	8.841500e-001	-1.566269e-002	0.0	8.738500e-001	-1.694956e-002	0.0	8.631800e-001	-1.826569e-002	0.0	8.521600e-001	-1.960709e-002	0.0	8.407700e-001	-2.097463e-002	0.0	8.290500e-001	-2.236196e-002	0.0	8.170100e-001	-2.376642e-002	0.0	8.046400e-001	-2.518764e-002	0.0	7.919700e-001	-2.662063e-002	0.0	7.790100e-001	-2.806277e-002	0.0	7.657800e-001	-2.951034e-002	0.0	7.522800e-001	-3.096181e-002	0.0	7.385200e-001	-3.241453e-002	0.0	7.245300e-001	-3.386377e-002	0.0	7.103200e-001	-3.530689e-002	0.0	6.958900e-001	-3.674225e-002	0.0	6.812700e-001	-3.816515e-002	0.0	6.664700e-001	-3.957289e-002	0.0	6.515000e-001	-4.096270e-002	0.0	6.363800e-001	-4.233084e-002	0.0	6.211300e-001	-4.367359e-002	0.0	6.057600e-001	-4.498807e-002	0.0	5.902800e-001	-4.627133e-002	0.0	5.747100e-001	-4.751951e-002	0.0	5.590600e-001	-4.872956e-002	0.0	5.433600e-001	-4.989684e-002	0.0	5.276100e-001	-5.101898e-002	0.0	5.118400e-001	-5.209138e-002	0.0	4.960500e-001	-5.311154e-002	0.0	4.802700e-001	-5.407492e-002	0.0	4.645100e-001	-5.497836e-002	0.0	4.487800e-001	-5.581860e-002	0.0	4.331100e-001	-5.659142e-002	0.0	4.175000e-001	-5.729417e-002	0.0	4.019700e-001	-5.792324e-002	0.0	3.865400e-001	-5.847521e-002	0.0	3.712300e-001	-5.894684e-002	0.0	3.560400e-001	-5.933562e-002	0.0	3.409900e-001	-5.963848e-002	0.0	3.261100e-001	-5.985254e-002	0.0	3.114000e-001	-5.997565e-002	0.0	2.968700e-001	-6.000550e-002	0.0	2.825500e-001	-5.994005e-002	0.0	2.684500e-001	-5.977766e-002	0.0	2.545700e-001	-5.951658e-002	0.0	2.409400e-001	-5.915586e-002	0.0	2.275700e-001	-5.869457e-002	0.0	2.144700e-001	-5.813197e-002	0.0	2.016600e-001	-5.746811e-002	0.0	1.891400e-001	-5.670228e-002	0.0	1.769300e-001	-5.583514e-002	0.0	1.650400e-001	-5.486709e-002	0.0	1.534900e-001	-5.379978e-002	0.0	1.422900e-001	-5.263443e-002	0.0	1.314400e-001	-5.137134e-002	0.0	1.209500e-001	-5.001187e-002	0.0	1.108500e-001	-4.856067e-002	0.0	1.011300e-001	-4.701715e-002	0.0	9.181000e-002	-4.538527e-002	0.0	8.290000e-002	-4.366791e-002	0.0	7.440000e-002	-4.186608e-002	0.0	6.633000e-002	-3.998514e-002	0.0	5.869000e-002	-3.802636e-002	0.0	5.149000e-002	-3.599338e-002	0.0	4.474000e-002	-3.389028e-002	0.0	3.844000e-002	-3.171811e-002	0.0	3.260000e-002	-2.948109e-002	0.0	2.723000e-002	-2.718420e-002	0.0	2.232000e-002	-2.482329e-002	0.0	1.790000e-002	-2.241365e-002	0.0	1.395000e-002	-1.994492e-002	0.0	1.049000e-002	-1.742916e-002	0.0	7.520000e-003	-1.486756e-002	0.0	5.040000e-003	-1.226032e-002	0.0	3.050000e-003	-9.605565e-003	0.0	1.560000e-003	-6.917518e-003	0.0	5.600000e-004	-4.173160e-003	0.0	6.000000e-005	-1.375330e-003	0.0	0.000000e+000	0.000000e+000	0.0	6.000000e-005	1.375330e-003	0.0	5.600000e-004	4.173160e-003	0.0	1.560000e-003	6.917518e-003	0.0	3.050000e-003	9.605565e-003	0.0	5.040000e-003	1.226032e-002	0.0	7.520000e-003	1.486756e-002	0.0	1.049000e-002	1.742916e-002	0.0	1.395000e-002	1.994492e-002	0.0	1.790000e-002	2.241365e-002	0.0	2.232000e-002	2.482329e-002	0.0	2.723000e-002	2.718420e-002	0.0	3.260000e-002	2.948109e-002	0.0	3.844000e-002	3.171811e-002	0.0	4.474000e-002	3.389028e-002	0.0	5.149000e-002	3.599338e-002	0.0	5.869000e-002	3.802636e-002	0.0	6.633000e-002	3.998514e-002	0.0	7.440000e-002	4.186608e-002	0.0	8.290000e-002	4.366791e-002	0.0	9.181000e-002	4.538527e-002	0.0	1.011300e-001	4.701715e-002	0.0	1.108500e-001	4.856067e-002	0.0	1.209500e-001	5.001187e-002	0.0	1.314400e-001	5.137134e-002	0.0	1.422900e-001	5.263443e-002	0.0	1.534900e-001	5.379978e-002	0.0	1.650400e-001	5.486709e-002	0.0	1.769300e-001	5.583514e-002	0.0	1.891400e-001	5.670228e-002	0.0	2.016600e-001	5.746811e-002	0.0	2.144700e-001	5.813197e-002	0.0	2.275700e-001	5.869457e-002	0.0	2.409400e-001	5.915586e-002	0.0	2.545700e-001	5.951658e-002	0.0	2.684500e-001	5.977766e-002	0.0	2.825500e-001	5.994005e-002	0.0	2.968700e-001	6.000550e-002	0.0	3.114000e-001	5.997565e-002	0.0	3.261100e-001	5.985254e-002	0.0	3.409900e-001	5.963848e-002	0.0	3.560400e-001	5.933562e-002	0.0	3.712300e-001	5.894684e-002	0.0	3.865400e-001	5.847521e-002	0.0	4.019700e-001	5.792324e-002	0.0	4.175000e-001	5.729417e-002	0.0	4.331100e-001	5.659142e-002	0.0	4.487800e-001	5.581860e-002	0.0	4.645100e-001	5.497836e-002	0.0	4.802700e-001	5.407492e-002	0.0	4.960500e-001	5.311154e-002	0.0	5.118400e-001	5.209138e-002	0.0	5.276100e-001	5.101898e-002	0.0	5.433600e-001	4.989684e-002	0.0	5.590600e-001	4.872956e-002	0.0	5.747100e-001	4.751951e-002	0.0	5.902800e-001	4.627133e-002	0.0	6.057600e-001	4.498807e-002	0.0	6.211300e-001	4.367359e-002	0.0	6.363800e-001	4.233084e-002	0.0	6.515000e-001	4.096270e-002	0.0	6.664700e-001	3.957289e-002	0.0	6.812700e-001	3.816515e-002	0.0	6.958900e-001	3.674225e-002	0.0	7.103200e-001	3.530689e-002	0.0	7.245300e-001	3.386377e-002	0.0	7.385200e-001	3.241453e-002	0.0	7.522800e-001	3.096181e-002	0.0	7.657800e-001	2.951034e-002	0.0	7.790100e-001	2.806277e-002	0.0	7.919700e-001	2.662063e-002	0.0	8.046400e-001	2.518764e-002	0.0	8.170100e-001	2.376642e-002	0.0	8.290500e-001	2.236196e-002	0.0	8.407700e-001	2.097463e-002	0.0	8.521600e-001	1.960709e-002	0.0	8.631800e-001	1.826569e-002	0.0	8.738500e-001	1.694956e-002	0.0	8.841500e-001	1.566269e-002	0.0	8.940600e-001	1.440916e-002	0.0	9.035800e-001	1.319056e-002	0.0	9.127000e-001	1.200973e-002	0.0	9.214000e-001	1.087086e-002	0.0	9.296900e-001	9.774221e-003	0.0	9.375400e-001	8.725349e-003	0.0	9.449600e-001	7.724467e-003	0.0	9.519400e-001	6.774429e-003	0.0	9.584700e-001	5.878077e-003	0.0	9.645400e-001	5.038225e-003	0.0	9.701500e-001	4.256269e-003	0.0	9.752800e-001	3.536324e-003	0.0	9.799500e-001	2.876826e-003	0.0	9.841300e-001	2.283177e-003	0.0	9.878400e-001	1.753610e-003	0.0	9.910500e-001	1.293364e-003	0.0	9.937800e-001	9.004365e-004	0.0	9.960200e-001	5.769984e-004	0.0	9.977600e-001	3.251112e-004	0.0	9.990000e-001	1.452538e-004	0.0	9.997500e-001	3.632897e-005	0.0	1.000000e+000	0.000000e+000	0.0	1.984229e+001	2.506660e+000	0.0	1.937166e+001	4.973800e+000	0.0	1.859553e+001	7.362490e+000	0.0	1.752613e+001	9.635070e+000	0.0	1.618034e+001	1.175571e+001	0.0	1.457937e+001	1.369094e+001	0.0	1.274848e+001	1.541027e+001	0.0	1.071654e+001	1.688656e+001	0.0	8.515590e+000	1.809654e+001	0.0	6.180340e+000	1.902113e+001	0.0	3.747630e+000	1.964575e+001	0.0	1.255810e+000	1.996053e+001	0.0	-1.255810e+000	1.996053e+001	0.0	-3.747630e+000	1.964574e+001	0.0	-6.180340e+000	1.902113e+001	0.0	-8.515590e+000	1.809654e+001	0.0	-1.071654e+001	1.688656e+001	0.0	-1.274848e+001	1.541026e+001	0.0	-1.457937e+001	1.369094e+001	0.0	-1.618034e+001	1.175570e+001	0.0	-1.752613e+001	9.635070e+000	0.0	-1.859553e+001	7.362490e+000	0.0	-1.937166e+001	4.973800e+000	0.0	-1.984229e+001	2.506660e+000	0.0	-2.000000e+001	0.000000e+000	0.0	-1.984229e+001	-2.506670e+000	0.0	-1.937166e+001	-4.973800e+000	0.0	-1.859553e+001	-7.362490e+000	0.0	-1.752613e+001	-9.635080e+000	0.0	-1.618034e+001	-1.175571e+001	0.0	-1.457937e+001	-1.369094e+001	0.0	-1.274848e+001	-1.541027e+001	0.0	-1.071653e+001	-1.688656e+001	0.0	-8.515580e+000	-1.809654e+001	0.0	-6.180340e+000	-1.902113e+001	0.0	-3.747620e+000	-1.964575e+001	0.0	-1.255810e+000	-1.996053e+001	0.0	1.255810e+000	-1.996053e+001	0.0	3.747630e+000	-1.964574e+001	0.0	6.180340e+000	-1.902113e+001	0.0	8.515590e+000	-1.809654e+001	0.0	1.071654e+001	-1.688656e+001	0.0	1.274848e+001	-1.541026e+001	0.0	1.457937e+001	-1.369094e+001	0.0	1.618034e+001	-1.175570e+001	0.0	1.752614e+001	-9.635070e+000	0.0	1.859553e+001	-7.362490e+000	0.0	1.937166e+001	-4.973790e+000	0.0	1.984229e+001	-2.506660e+000	0.0	2.000000e+001	0.000000e+000	0.0	6.071847e-002	-4.599300e-002	0.0	6.602584e-001	-5.397924e-002	0.0	4.259462e-001	7.123173e-002	0.0	6.898893e-001	5.084802e-002	0.0	3.793152e-001	-7.273116e-002	0.0	9.994604e-001	-7.202256e-004	0.0	9.985440e-001	-1.312423e-003	0.0	7.737237e-001	-4.090969e-002	0.0	6.898893e-001	-5.084802e-002	0.0	-1.456769e-003	6.464601e-003	0.0	7.467285e-001	-4.428984e-002	0.0	5.836398e-001	6.115854e-002	0.0	9.927702e-001	-3.577733e-003	0.0	9.898650e-001	-4.450375e-003	0.0	5.991925e-001	5.980916e-002	0.0	7.187526e-001	-4.760665e-002	0.0	-1.597618e-003	7.671995e-004	0.0	9.864674e-001	-5.394793e-003	0.0	9.825871e-001	-6.398977e-003	0.0	-1.456774e-003	-6.464600e-003	0.0	6.451948e-001	-5.549610e-002	0.0	8.243215e-001	-3.409983e-002	0.0	7.996157e-001	-3.751255e-002	0.0	3.487901e-001	7.326090e-002	0.0	8.477112e-001	-3.071909e-002	0.0	2.474256e-001	7.182160e-002	0.0	8.697233e-001	-2.738134e-002	0.0	9.916188e-003	2.185203e-002	0.0	8.902508e-001	-2.411717e-002	0.0	7.700293e-002	-5.054436e-002	0.0	9.092206e-001	-2.095307e-002	0.0	-1.944578e-003	-3.190372e-003	0.0	9.421664e-001	-1.502079e-002	0.0	9.265514e-001	-1.791177e-002	0.0	1.789678e-002	-2.766280e-002	0.0	4.259462e-001	-7.123173e-002	0.0	8.588986e-001	-2.904064e-002	0.0	9.560213e-001	-1.230722e-002	0.0	9.782180e-001	-7.479396e-003	0.0	9.680592e-001	-9.783205e-003	0.0	1.582863e-001	-6.490557e-002	0.0	8.999374e-001	-2.252139e-002	0.0	7.603588e-001	-4.260503e-002	0.0	9.971186e-001	-2.046344e-003	0.0	5.991925e-001	-5.980916e-002	0.0	4.416505e-001	-7.055456e-002	0.0	5.365104e-001	-6.487405e-002	0.0	4.732224e-001	-6.895566e-002	0.0	5.048788e-001	-6.705339e-002	0.0	4.890394e-001	-6.804024e-002	0.0	1.249513e-001	-6.028257e-002	0.0	2.780447e-002	-3.325805e-002	0.0	3.947663e-001	-7.232395e-002	0.0	4.619013e-002	-4.112
[...]
POINT_DATA 5233
SCALARS Density float 1
LOOKUP_TABLE default
1.18061890250007e+00	1.15732940250028e+00	1.14277327250050e+00	1.13056812750078e+00	1.11992383000106e+00	1.11085862750123e+00	1.10334486250113e+00	1.09738498000067e+00	1.09195396499984e+00	1.08569169324873e+00	1.07727472349745e+00	1.06697477874619e+00	1.05765967249523e+00	1.05151886149474e+00	1.04821756324470e+00	1.04611468574498e+00	1.04363587324540e+00	1.03993547124586e+00	1.03517830449628e+00	1.03000045074664e+00	1.02495351874696e+00	1.02028844099726e+00	1.01597327499757e+00	1.01188026224790e+00	1.00786804924827e+00	1.00386239324868e+00	9.99846047249119e-01	9.95824975499590e-01	9.91834902750083e-01	9.87921596750583e-01	9.84079435001077e-01	9.80190262001559e-01	9.76120708752052e-01	9.72005380252590e-01	9.67859897253205e-01	9.63736397753775e-01	9.59690829254253e-01	9.55862276254617e-01	9.51963552505068e-01	9.46718441506189e-01	9.40880231257471e-01	9.35467821758440e-01	9.30318804259139e-01	9.25640712259622e-01	9.19542216260607e-01	9.13034356011685e-01	9.07315577512115e-01	8.99567494262300e-01	8.89747243512406e-01	8.78983873012481e-01	8.68938184262283e-01	8.60276185011530e-01	8.53013218260336e-01	8.47274303258920e-01	8.40895497257009e-01	8.33810646004727e-01	8.25660367751935e-01	8.16901377748798e-01	8.10405110746213e-01	8.06680390494451e-01	8.02978599242607e-01	7.99923617240946e-01	7.99357000990117e-01	8.00434155239779e-01	8.02020835989597e-01	8.03251895489361e-01	8.04507849739056e-01	8.06548690488849e-01	8.09743833238848e-01	8.13998791239033e-01	8.18980732239339e-01	8.24503746739734e-01	8.30550157240196e-01	8.37053322740695e-01	8.43981666491208e-01	8.51345699741751e-01	8.59311809992341e-01	8.68041017242981e-01	8.77491169993655e-01	8.87637789244361e-01	8.98566184245097e-01	9.10319897495858e-01	9.23031772996644e-01	9.36792371747449e-01	9.51763872248271e-01	9.68185889999108e-01	9.86242313249951e-01	1.00622957800079e+00	1.02854949300162e+00	1.05346145175241e+00	1.08146555400311e+00	1.11303728750369e+00	1.14820609500406e+00	1.18707091000414e+00	1.22883852750386e+00	1.27151506250316e+00	1.30922453000209e+00	1.34162049500067e+00	1.34745972749983e+00	1.33609650999934e+00	1.32838398999904e+00	1.29606344999890e+00	1.22933979249881e+00	1.16962494749875e+00	1.11228595749865e+00	1.06066567399851e+00	1.01595607049835e+00	9.77759268748192e-01	9.44922225248050e-01	9.16711337497925e-01	8.92280215747819e-01	8.70787132997734e-01	8.51830018997665e-01	8.34863708247609e-01	8.19579041747567e-01	8.05828997997540e-01	7.93295862247530e-01	7.81650674497535e-01	7.70733311997550e-01	7.60406580747570e-01	7.50680654247592e-01	7.41633646497622e-01	7.33254957997667e-01	7.25327748497730e-01	7.17654158497800e-01	7.10221553497867e-01	7.03280866247930e-01	6.96798128247999e-01	6.90574999498076e-01	6.84414218248156e-01	6.78439304748234e-01	6.72835784998311e-01	6.67772039498392e-01	6.63205478248479e-01	6.59068870998575e-01	6.55228482498678e-01	6.51597399748785e-01	6.48144722998896e-01	6.44783738749008e-01	6.41528230249111e-01	6.38427594499185e-01	6.35674560999251e-01	6.33609320499459e-01	6.32277622499818e-01	6.30737029750030e-01	6.28778867750143e-01	6.27573871750392e-01	6.27681875750707e-01	6.29246246250689e-01	6.33465302000371e-01	6.39196041749778e-01	6.47845818248906e-01	6.60872582998040e-01	6.81372447247194e-01	7.06042578496339e-01	7.29159967246416e-01	7.53974373247089e-01	7.83045230497792e-01	8.08983534499096e-01	8.31841688500773e-01	8.56567638752087e-01	8.84654902503249e-01	9.12287951754044e-01	9.33953351254217e-01	9.48965592253706e-01	9.60563352502493e-01	9.70527556751527e-01	9.77052022500916e-01	9.83237813000247e-01	9.89011339249845e-01	9.93639758499714e-01	9.97121684249612e-01	1.00038712499943e+00	1.00349360599936e+00	1.00669393724934e+00	1.01008401349933e+00	1.01366004174934e+00	1.01746733399936e+00	1.02156898249940e+00	1.02598042524946e+00	1.03053505999952e+00	1.03487721324959e+00	1.03857936274964e+00	1.04154767574969e+00	1.04436508274973e+00	1.04808839649978e+00	1.05375738749984e+00	1.06142941449992e+00	1.06964242400001e+00	1.07670053750010e+00	1.08244507500019e+00	1.08772863750026e+00	1.09357533000030e+00	1.10075340250031e+00	1.10917348250030e+00	1.11906437500028e+00	1.13020903750027e+00	1.14398024250026e+00	1.15961019500030e+00	1.15441519750020e+00	9.98818497249992e-01	9.99668673749998e-01	9.99747624749998e-01	9.99614264499996e-01	9.99523545499995e-01	9.99408858749994e-01	9.99272542499994e-01	9.99102841749993e-01	9.98918575499991e-01	9.98795007999990e-01	9.98734728999989e-01	9.98818976749990e-01	9.99011373999992e-01	9.99362293999994e-01	9.99653639999996e-01	9.99889329499998e-01	1.00002284650000e+00	1.00010716050000e+00	1.00016093325000e+00	1.00018639250000e+00	1.00020169000000e+00	1.00020861500000e+00	1.00021454750000e+00	1.00022268500000e+00	1.00022956000000e+00	1.00024036000000e+00	1.00025929250000e+00	1.00028346250000e+00	1.00031726000000e+00	1.00036793000000e+00	1.00042481500000e+00	1.00051776000000e+00	1.00060807500000e+00	1.00076093500001e+00	1.00090233250001e+00	1.00107565000001e+00	1.00125664200001e+00	1.00132749875001e+00	1.00134663375001e+00	1.00124391150001e+00	1.00112873900001e+00	1.00096102475001e+00	1.00080460500001e+00	1.00065056275001e+00	1.00051338775000e+00	1.00034525450000e+00	1.00021111775000e+00	1.00022977525000e+00	9.99369039999995e-01	9.98232141499987e-01	9.44927429997542e-01	9.51851734255190e-01	6.33714765750020e-01	9.02474754003901e-01	8.25172445500223e-01	1.16058320000018e+00	1.14890960000031e+00	9.83845491001232e-01	9.59661427004252e-01	1.28104059999915e+00	9.75846862502161e-01	7.20959655495993e-01	1.11568301500080e+00	1.10759742250079e+00	7.43138418246815e-01	9.67647185753334e-01	1.33394453249944e+00	1.10076824250054e+00	1.09483544000001e+00	1.32719566250096e+00	9.45859063006652e-01	9.99329924249377e-01	9.91451621750302e-01	6.45023651499094e-01	1.00727893524855e+00	6.72588380748404e-01	1.01529753349784e+00	1.03698211224859e+00	1.02389485274723e+00	9.17664849746007e-01	1.03356658549662e+00	1.34402235000021e+00	1.04847541299536e+00	1.04252358774593e+00	1.09145505175262e+00	8.48110660007913e-01	1.01126297324818e+00	1.05650174549561e+00	1.08888552499924e+00	1.07315706274724e+00	8.42496931990915e-01	1.02863569574693e+00	9.79904370501686e-01	1.13583606750048e+00	9.30331421259080e-01	8.53489640009479e-01	9.06891184511904e-01	8.67564507511775e-01	8.87361901012162e-01	8.76656574262229e-01	8.65360044242562e-01	1.03869944650138e+00	8.34110790503331e-01	9.77183981749109e-01	8.41184552505762e-01	8.05859258991592e-01	8.12888414995223e-01	1.01611942825065e+00	8.05293201490043e-01	1.04580381299560e+00	8.49630424241441e-01	8.24073561239570e-01	9.05571080745266e-01	8.83875291493852e-01	9.18402323011011e-01	8.35830801490407e-01	9.35112342008574e-01	1.01947244274753e+00	1.06371002275205e+00	1.12515046000067e+00	1.19179382000334e+00	9.65238443248290e-01	1.03834665099628e+00	1.05159079024532e+00	1.08187581774828e+00	1.23210217249906e+00	1.00330484074895e+00	8.10105408239459e-01	9.13086836511683e-01	9.71763775252729e-01	9.87632160000772e-01	8.74215210493187e-01	8.14860517489131e-01	9.25645173259619e-01	9.56100103504522e-01	9.60349405248324e-01	1.22952840000308e+00	1.12208346500306e+00	8.17188855247186e-01	8.29694808489951e-01	1.19352598999998e+00	8.11915249989187e-01	8.94337028244547e-01	8.04452692990469e-01	8.08793281739721e-01	8.59548483010736e-01	9.63591043253841e-01	1.32024669249922e+00	1.30146697750182e+00	6.55990049998359e-01	1.33974629749970e+00	9.10093436748038e-01	8.32614849247726e-01	8.67013499997852e-01	7.49682353247707e-01	6.35749198249918e-01	1.12404431750025e+00	6.45648102249360e-01	6.31302103500774e-01	1.07375976500005e+00	1.05936068874990e+00	1.02146836974942e+00	6.34247320250496e-01	6.31545774000161e-01	6.39057676749236e-01	1.03805738324963e+00	1.02988705824952e+00	7.92026687497660e-01	1.07991403500012e+00	1.05298672124984e+00	1.04462532899973e+00	7.69396327747670e-01	8.17916923747687e-01	6.59532431498681e-01	6.67887147498488e-01	7.09445958747976e-01	6.52023381748896e-01	6.31111996750531e-01	6.37162445999576e-01	7.24330626247862e-01	7.40847397997749e-01	8.00678603748309e-01	6.96045630748110e-01	6.83466609748254e-01	8.46363253751506e-01	6.96681777246650e-01	9.69506586751798e-01	9.45718333004214e-01	9.94195614999749e-01	9.82770902750541e-01	1.00726268074938e+00	1.00113780549952e+00	1.02559455099946e+00	1.01396010099937e+00	1.04818920374978e+00	1.03413764349958e+00	1.06670462899997e+00	1.01051594224937e+00	1.01759691649939e+00	9.97917992249716e-01	1.00422371399941e+00	9.76595457001231e-01	9.88850928999963e-01	9.27913301754185e-01	9.57390512253128e-01	8.23013282999986e-01	8.73406357502667e-01	6.72137398747594e-01	7.71036568997309e-01	6.89625340248182e-01	6.77794859498327e-01	7.16657481747918e-01	7.02665535748040e-01	8.48873148247781e-01	7.32466053247805e-01	9.98741502748438e-01	8.87314009997938e-01	8.19019341989275e-01	1.12827301699889e+00	1.06396038724628e+00	9.95359881999833e-01	8.09827401493626e-01	8.97819388262080e-01	1.18028591499899e+00	9.35852192748155e-01	1.08013211799875e+00	7.80367325247663e-01	8.04468048247667e-01	6.63557329998582e-01	7.59163604497683e-01	1.08552244500019e+00	1.09126426250024e+00	6.55706158248786e-01	1.09781936750026e+00	1.10539218250026e+00	6.48495600249004e-01	6.41822084749154e-01	1.04147858874968e+00	1.17083572000031e+00	1.13596533750025e+00	1.14757849250026e+00	9.40314257007734e-01	9.95699557499889e-01	1.11414446000026e+00	6.39050141250126e-01	1.26731340250255e+00	1.15570156250332e+00	9.30738908746768e-01	8.57221401241982e-01	8.07093427239864e-01	8.16785830497828e-01	1.26126041749939e+00	1.30045087499946e+00	8.12738954490166e-01	9.63669994503851e-01	1.03679937999668e+00	1.18670480750280e+00	7.12526512996086e-01	9.59936967754179e-01	9.87460999500929e-01	1.10394609500033e+00	8.13760643242731e-01	1.01076261049845e+00	1.00288820024920e+00	9.13064890745472e-01	1.30790238500120e+00	8.25178857989648e-01	1.12398895250253e+00	1.06229156124653e+00	8.56141387241739e-01	9.67655478003383e-01	9.51222405755595e-01	8.60143049009807e-01	9.25355686246181e-01	8.34632081001719e-01	1.02757384499723e+00	9.91198840250493e-01	1.08720131349895e+00	9.80158933248517e-01	8.62200361502096e-01	1.00794118249943e+00	7.69179657497794e-01	8.90850712003387e-01	7.24567121247978e-01	1.01787792899942e+00	1.09440377500020e+00	6.53017937748989e-01	6.45787185499701e-01	1.05257612774983e+00	1.02155648949945e+00	1.10097053000022e+00	1.05802285824988e+00	1.08263030250012e+00	6.84238762748346e-01	6.56869614748892e-01	6.90018184998276e-01	7.79799869497788e-01	9.56336701004514e-01	8.30216007989912e-01	1.04791590949881e+00	7.40843421997892e-01	8.63316348997975e-01	1.07075798000000e+00	1.10848316250023e+00	1.02542794299948e+00	8.48804953241198e-01	1.18477076000018e+00	1.12627786750024e+00	1.11681986500023e+00	1.12964727824909e+00	1.21927876749928e+00	1.21979637500266e+00	1.33699392500008e+00	1.33261590499971e+00	1.09553785000216e+00	1.19437523250003e+00	9.52860333747629e-01	1.13849266500031e+00	1.11914646250050e+00	6.39680269499896e-01	9.13085981011462e-01	1.09750676999999e+00	1.01883145124781e+00	7.34784610496326e-01	1.11104407000049e+00	1.32906458500059e+00	8.54903368508481e-01	6.41792704749726e-01	1.00682286674882e+00	6.69309718248595e-01	1.01475106899812e+00	1.02308645449752e+00	9.38576910496901e-01	1.03220223824696e+00	1.04106536749640e+00	1.05156309674592e+00	1.04551742700110e+00	1.05607742224609e+00	1.06997196599721e+00	1.09140176499945e+00	8.72292008742856e-01	9.79734639001795e-01	9.83686645751361e-01	1.12828247750042e+00	8.67245104260979e-01	8.75672831261682e-01	8.85472838761846e-01	1.06953908100168e+00	8.42309223254417e-01	8.48869412506599e-01	8.16976863244485e-01	1.00356068124979e+00	1.04478933224615e+00	1.04809512674596e+00	8.63974165492293e-01	9.01623802994776e-01	9.18223660261066e-01	9.35105724008570e-01	1.07789114099799e+00	1.08504821749877e+00	9.71644540002849e-01	9.75748335252275e-01	8.91060171744104e-01	8.81285308493462e-01	9.24929439509883e-01	9.30719240508969e-01	9.85269742999081e-01	9.68417439748358e-01	1.15436405000275e+00	8.20022513996068e-01	8.26232353998649e-01	8.42109796990701e-01	8.35925718490275e-01	8.21253152989556e-01	8.18572487489689e-01	8.11079569740397e-01	8.11110180991115e-01	8.16689017739911e-01	1.32502389999955e+00	1.25298075250231e+00	8.81928464998055e-01	1.08834446750017e+00	6.53672549748848e-01	6.40862261750317e-01	6.36635967750584e-01	6.35633670250673e-01	1.07688760750007e+00	1.06431368624994e+00	1.03738178649963e+00	6.35652208500250e-01	6.37220777749995e-01	6.43671893249324e-01	1.03349149574957e+00	1.04816594774977e+00	8.30937333497861e-01	8.46390052747909e-01	6.78919922748424e-01	6.73916847998506e-01	7.32427424997932e-01	7.49966576747856e-01	7.59342730247819e-01	9.94270528749844e-01	9.66194821002338e-01	9.54226936753695e-01	9.88359088000181e-01	1.00501941649946e+00	1.02944376074952e+00	1.01437686949941e+00	1.01105409249942e+00	1.00175451499965e+00	9.98587918499775e-01	9.82114366000897e-01	9.75926866501475e-01	9.40280715254321e-01	9.19560450004076e-01	8.36897138250870e-01	8.14491986249066e-01	6.87043481497077e-01	6.66436073497931e-01	7.89727073747830e-01	7.59080850997026e-01	6.96137841748210e-01	7.02807233748149e-01	7.09805044998089e-01	7.17142322248033e-01	1.01235313274866e+00	9.02659276998151e-01	9.25853895748261e-01	9.95038390750052e-01	9.98959499499618e-01	8.96162283011740e-01	9.05499230011674e-01	1.17478973249920e+00	9.51566185498382e-01	7.91284509247795e-01	8.03603670497808e-01	6.60798086498789e-01	6.64934945748690e-01	6.46286451999114e-01	6.49453123249047e-01	1.04448525224972e+00	1.04100929549968e+00	9.40090065257872e-01	9.45391788256923e-01	1.02354340700046e+00	1.28383407500184e+00	8.14892606990071e-01	1.30917553000083e+00	8.43473530752863e-01	8.18902579490507e-01	9.91291665000634e-01	9.12948424511163e-01	1.03982564549682e+00	1.09700489000018e+00	1.09101703000015e+00	1.06254243099992e+00	1.16957599749937e+00	1.10392373500019e+00	1.13651566750025e+00	1.15073203250027e+00	1.12998528000025e+00	1.17518055250011e+00	1.09914707750180e+00	1.30755712749979e+00	9.21123288745733e-01	1.04377492749662e+00	1.10684180000018e+00	7.04182556746404e-01	1.15034033750022e+00	1.21085316000227e+00	9.67948982753377e-01	1.26672445500171e+00	9.71885903002898e-01	1.12506718000211e+00	1.01831112249808e+00	1.18156480500236e+00	8.21636532243710e-01	1.01432552474839e+00	9.64145597753778e-01	1.11432359500028e+00	1.15290611000230e+00	1.07976637500007e+00	6.53774246749286e-01	1.05218370724982e+00	8.52561652501518e-01	1.11064993500020e+00	6.47671940250054e-01	6.80533363498523e-01	6.62102598998878e-01	7.41786023998002e-01	8.44481228498036e-01	1.14463197250024e+00	1.28670706000129e+00	1.24169108749956e+00	1.02394872599886e+00	1.27987463749967e+00	1.06767012024733e+00	9.33493367746411e-01	1.32761155249989e+00	8.62973153492060e-01	8.67442317260063e-01	1.07473810150139e+00	1.09257025499914e+00	1.00870791449947e+00	9.94381197749937e-01	8.81033442502774e-01	1.08536474250012e+00	1.05703408424987e+00	1.02533722824950e+00	1.02165417324947e+00	6.66370028748788e-01	6.75493918998607e-01	6.97355010498301e-01	7.91304400997911e-01	9.56576455504613e-01	9.60557171504053e-01	8.36824831740300e-01	1.05715429799900e+00	7.50177785247970e-01	1.07417338750002e+00	1.11802739000021e+00	1.13037415499926e+00	1.20805523249946e+00	1.23951409750203e+00	1.31977750500035e+00	1.05172446475089e+00	1.16650038000006e+00	1.15704491250013e+00	1.07475980874793e+00	1.10031375499996e+00	7.27501584995856e-01	8.61552266508844e-01	6.46648051749771e-01	1.00648801274906e+00	1.01038742674871e+00	1.02243078424780e+00	1.02672072024753e+00	9.61087298997769e-01	9.46810934997092e-01	1.03110635374728e+00	1.03556873299704e+00	1.05564471349655e+00	1.06110184299685e+00	1.09415817999961e+00	9.83791898501443e-01	9.87566381251037e-01	1.12191580000026e+00	8.75144772761035e-01	8.84183954761409e-01	8.50212293005227e-01	8.56498866007327e-01	1.03071306675034e+00	1.04748854824648e+00	1.05124949674644e+00	8.79771595493215e-01	8.71134390242639e-01	9.18795454510883e-01	9.24539402510084e-01	1.08163283999855e+00	1.08800061749912e+00	9.75876167252359e-01	9.79854641751860e-01	9.09598593995069e-01	8.98720199744411e-01	8.88791095243784e-01	9.31080031008919e-01	9.35695398758424e-01	1.01148990124975e+00	9.93423756999108e-01	9.76557081248441e-01	8.24137535495183e-01	8.28238784247131e-01	8.35622269500045e-01	8.55685328491526e-01	8.48973100241066e-01	8.42660565740652e-01	8.31899053990065e-01	8.28140610740020e-01	8.17662006740869e-01	8.18569922491908e-01	8.25555373490169e-01	8.96934401748256e-01	6.43284754750403e-01	6.40638688250674e-01	1.06836478499997e+00	6.40767790500406e-01	6.41569172000005e-01	6.43883483749849e-01	6.48794634749462e-01	1.03682409574963e+00	8.60523013248097e-01	8.78021168248170e-01	6.85755827248445e-01	6.91473999248371e-01	7.59391693997951e-01	7.69812805997938e-01	7.80481092497919e-01	9.63046097002927e-01	1.03302017649958e+00	1.02914293974954e+00	1.01812780674946e+00	1.01479183674945e+00	1.01170783249946e+00	1.00572670824954e+00	1.00249118099975e+00	9.99222142249803e-01	9.88052422000455e-01	9.81825726751172e-01	9.74937240001728e-01	9.51336471254122e-01	9.34763160004166e-01	9.10293384753899e-01	8.28974287500009e-01	6.79389749247478e-01	6.63754595998332e-01	8.06699819248499e-01	7.78349574997339e-01	7.49686669746746e-01	7.03692619498239e-01	7.10276520248181e-01	7.17618617998134e-01	7.25389405498087e-01	7.33631565998044e-01	9.17559655748357e-01	9.40614599998474e-01	9.95005998750225e-01	9.98826279749817e-01	1.00261710349943e+00	8.94516192261396e-01	9.04371544761336e-01	9.66154295498597e-01	9.93683512748727e-01	8.03051833747925e-01	8.15932096747954e-01	8.29699614497991e-01	6.70841847998695e-01	6.51491982249111e-01	6.54729670999000e-01	6.58244845998953e-01	1.04799295124977e+00	1.04421283699972e+00	1.04055632224967e+00	9.40376381507853e-01	9.45446552007039e-01	9.50872166755944e-01	8.23432820990323e-01	8.21165151240400e-01	1.28888969500099e+00	9.29394022496026e-01	1.11153966500019e+00	1.08225520750007e+00	9.19283927760545e-01	1.28750718749999e+00	1.13780218500019e+00	1.04287768174705e+00	1.04684365724694e+00	1.05657886925070e+00	1.09894138000016e+00	6.52123667250192e-01	1.26742815500132e+00	1.06370000699918e+00	1.19999114500195e+00	1.06108744499990e+00	1.10513053250017e+00	1.22461074749972e+00	8.44662368000897e-01	1.19537817999962e+00	1.15338064500027e+00	1.16986101500003e+00	9.94983171250369e-01	8.71086306742458e-01	1.10118669750148e+00	8.52760485253835e-01	9.41847066746664e-01	8.69247015009031e-01	8.26496564241001e-01	1.08762581500011e+00	6.94515795496867e-01	1.05611208324985e+00	1.05160241099981e+00	9.93722542750103e-01	7.61598907498064e-01	6.94505840748473e-01	1.10274631499992e+00	8.74350059998280e-01	1.01812551124834e+00	1.12531316500022e+00	1.09317246500014e+00	1.12309136250015e+00	1.07854422999846e+00	1.12441573750174e+00	9.68246401253331e-01	1.22524571000181e+00	9.72336581502886e-01	9.75964823002443e-01	1.14938066250191e+00	1.10919204500006e+00	1.17482213250198e+00	1.00892569974951e+00	6.55427377249651e-01	6.78207981498697e-01	1.25846349749983e+00	1.09546315774930e+00	8.71324804002224e-01	1.02531500674953e+00	6.73623825248778e-01	6.83486810248620e-01	6.88622779748543e-01	9.60990014753996e-01	9.64944079503597e-01	1.07692436000003e+00	1.12812004249941e+00	1.16221900249952e+00	1.24902315000161e+00	1.30134081250060e+00	1.07824269500113e+00	1.07221418749798e+00	1.09661922749968e+00	7.22481727995803e-01	1.01027503249894e+00	1.01414526299863e+00	1.02216837824807e+00	1.02623671824782e+00	9.69127445247925e-01	9.55028331997299e-01	1.03042424849760e+00	1.03467163274739e+00	1.03884799949720e+00	1.06013060274720e+00	1.06595542574755e+00	9.87491479751134e-01	9.91429585500747e-01	1.11605938000013e+00	8.75948687760111e-01	8.84202637760745e-01	8.58757251506008e-01	8.64124546507759e-01	1.05081192049690e+00	1.05506424349699e+00	8.88117066243632e-01	8.78821161493022e-01	9.25162267759971e-01	1.08464520749893e+00	1.09064729499934e+00	9.79985284501926e-01	9.84351641501463e-01	9.17741525745382e-01	9.07011816244762e-01	8.97413352494197e-01	9.30890740