# vtk DataFile Version 3.0
vtk output
ASCII
DATASET UNSTRUCTURED_GRID
POINTS 5233 float
9.997500e-001	-3.632897e-005	0.0	9.990000e-001	-1.452538e-004	0.0	9.977600e-001	-3.251112e-004	0.0	9.960200e-001	-5.769984e-004	0.0	9.937800e-001	-9.004365e-004	0.0	9.910500e-001	-1.293364e-003	0.0	9.878400e-001	-1.753610e-003	0.0	9.841300e-001	-2.283177e-003	0.0	9.799500e-001	-2.876826e-003	0.0	9.752800e-001	-3.536324e-003	0.0	9.701500e-001	-4.256269e-003	0.0	9.645400e-001	-5.038225e-003	0.0	9.584700e-001	-5.878077e-003	0.0	9.519400e-001	-6.774429e-003	0.0	9.449600e-001	-7.724467e-003	0.0	9.375400e-001	-8.725349e-003	0.0	9.296900e-001	-9.774221e-003	0.0	9.214000e-001	-1.087086e-002	0.0	9.127000e-001	-1.200973e-002	0.0	9.035800e-001	-1.319056e-002	0.0	8.940600e-001	-1.440916e-002	0.0	8.841500e-001	-1.566269e-002	0.0	8.738500e-001	-1.694956e-002	0.0	8.631800e-001	-1.826569e-002	0.0	8.521600e-001	-1.960709e-002	0.0	8.407700e-001	-2.097463e-002	0.0	8.290500e-001	-2.236196e-002	0.0	8.170100e-001	-2.376642e-002	0.0	8.046400e-001	-2.518764e-002	0.0	7.919700e-001	-2.662063e-002	0.0	7.790100e-001	-2.806277e-002	0.0	7.657800e-001	-2.951034e-002	0.0	7.522800e-001	-3.096181e-002	0.0	7.385200e-001	-3.241453e-002	0.0	7.245300e-001	-3.386377e-002	0.0	7.103200e-001	-3.530689e-002	0.0	6.958900e-001	-3.674225e-002	0.0	6.812700e-001	-3.816515e-002	0.0	6.664700e-001	-3.957289e-002	0.0	6.515000e-001	-4.096270e-002	0.0	6.363800e-001	-4.233084e-002	0.0	6.211300e-001	-4.367359e-002	0.0	6.057600e-001	-4.498807e-002	0.0	5.902800e-001	-4.627133e-002	0.0	5.747100e-001	-4.751951e-002	0.0	5.590600e-001	-4.872956e-002	0.0	5.433600e-001	-4.989684e-002	0.0	5.276100e-001	-5.101898e-002	0.0	5.118400e-001	-5.209138e-002	0.0	4.960500e-001	-5.311154e-002	0.0	4.802700e-001	-5.407492e-002	0.0	4.645100e-001	-5.497836e-002	0.0	4.487800e-001	-5.581860e-002	0.0	4.331100e-001	-5.659142e-002	0.0	4.175000e-001	-5.729417e-002	0.0	4.019700e-001	-5.792324e-002	0.0	3.865400e-001	-5.847521e-002	0.0	3.712300e-001	-5.894684e-002	0.0	3.560400e-001	-5.933562e-002	0.0	3.409900e-001	-5.963848e-002	0.0	3.261100e-001	-5.985254e-002	0.0	3.114000e-001	-5.997565e-002	0.0	2.968700e-001	-6.000550e-002	0.0	2.825500e-001	-5.994005e-002	0.0	2.684500e-001	-5.977766e-002	0.0	2.545700e-001	-5.951658e-002	0.0	2.409400e-001	-5.915586e-002	0.0	2.275700e-001	-5.869457e-002	0.0	2.144700e-001	-5.813197e-002	0.0	2.016600e-001	-5.746811e-002	0.0	1.891400e-001	-5.670228e-002	0.0	1.769300e-001	-5.583514e-002	0.0	1.650400e-001	-5.486709e-002	0.0	1.534900e-001	-5.379978e-002	0.0	1.422900e-001	-5.263443e-002	0.0	1.314400e-001	-5.137134e-002	0.0	1.209500e-001	-5.001187e-002	0.0	1.108500e-001	-4.856067e-002	0.0	1.011300e-001	-4.701715e-002	0.0	9.181000e-002	-4.538527e-002	0.0	8.290000e-002	-4.366791e-002	0.0	7.440000e-002	-4.186608e-002	0.0	6.633000e-002	-3.998514e-002	0.0	5.869000e-002	-3.802636e-002	0.0	5.149000e-002	-3.599338e-002	0.0	4.474000e-002	-3.389028e-002	0.0	3.844000e-002	-3.171811e-002	0.0	3.260000e-002	-2.948109e-002	0.0	2.723000e-002	-2.718420e-002	0.0	2.232000e-002	-2.482329e-002	0.0	1.790000e-002	-2.241365e-002	0.0	1.395000e-002	-1.994492e-002	0.0	1.049000e-002	-1.742916e-002	0.0	7.520000e-003	-1.486756e-002	0.0	5.040000e-003	-1.226032e-002	0.0	3.050000e-003	-9.605565e-003	0.0	1.560000e-003	-6.917518e-003	0.0	5.600000e-004	-4.173160e-003	0.0	6.000000e-005	-1.375330e-003	0.0	0.000000e+000	0.000000e+000	0.0	6.000000e-005	1.375330e-003	0.0	5.600000e-004	4.173160e-003	0.0	1.560000e-003	6.917518e-003	0.0	3.050000e-003	9.605565e-003	0.0	5.040000e-003	1.226032e-002	0.0	7.520000e-003	1.486756e-002	0.0	1.049000e-002	1.742916e-002	0.0	1.395000e-002	1.994492e-002	0.0	1.790000e-002	2.241365e-002	0.0	2.232000e-002	2.482329e-002	0.0	2.723000e-002	2.718420e-002	0.0	3.260000e-002	2.948109e-002	0.0	3.844000e-002	3.171811e-002	0.0	4.474000e-002	3.389028e-002	0.0	5.149000e-002	3.599338e-002	0.0	5.869000e-002	3.802636e-002	0.0	6.633000e-002	3.998514e-002	0.0	7.440000e-002	4.186608e-002	0.0	8.290000e-002	4.366791e-002	0.0	9.181000e-002	4.538527e-002	0.0	1.011300e-001	4.701715e-002	0.0	1.108500e-001	4.856067e-002	0.0	1.209500e-001	5.001187e-002	0.0	1.314400e-001	5.137134e-002	0.0	1.422900e-001	5.263443e-002	0.0	1.534900e-001	5.379978e-002	0.0	1.650400e-001	5.486709e-002	0.0	1.769300e-001	5.583514e-002	0.0	1.891400e-001	5.670228e-002	0.0	2.016600e-001	5.746811e-002	0.0	2.144700e-001	5.813197e-002	0.0	2.275700e-001	5.869457e-002	0.0	2.409400e-001	5.915586e-002	0.0	2.545700e-001	5.951658e-002	0.0	2.684500e-001	5.977766e-002	0.0	2.825500e-001	5.994005e-002	0.0	2.968700e-001	6.000550e-002	0.0	3.114000e-001	5.997565e-002	0.0	3.261100e-001	5.985254e-002	0.0	3.409900e-001	5.963848e-002	0.0	3.560400e-001	5.933562e-002	0.0	3.712300e-001	5.894684e-002	0.0	3.865400e-001	5.847521e-002	0.0	4.019700e-001	5.792324e-002	0.0	4.175000e-001	5.729417e-002	0.0	4.331100e-001	5.659142e-002	0.0	4.487800e-001	5.581860e-002	0.0	4.645100e-001	5.497836e-002	0.0	4.802700e-001	5.407492e-002	0.0	4.960500e-001	5.311154e-002	0.0	5.118400e-001	5.209138e-002	0.0	5.276100e-001	5.101898e-002	0.0	5.433600e-001	4.989684e-002	0.0	5.590600e-001	4.872956e-002	0.0	5.747100e-001	4.751951e-002	0.0	5.902800e-001	4.627133e-002	0.0	6.057600e-001	4.498807e-002	0.0	6.211300e-001	4.367359e-002	0.0	6.363800e-001	4.233084e-002	0.0	6.515000e-001	4.096270e-002	0.0	6.664700e-001	3.957289e-002	0.0	6.812700e-001	3.816515e-002	0.0	6.958900e-001	3.674225e-002	0.0	7.103200e-001	3.530689e-002	0.0	7.245300e-001	3.386377e-002	0.0	7.385200e-001	3.241453e-002	0.0	7.522800e-001	3.096181e-002	0.0	7.657800e-001	2.951034e-002	0.0	7.790100e-001	2.806277e-002	0.0	7.919700e-001	2.662063e-002	0.0	8.046400e-001	2.518764e-002	0.0	8.170100e-001	2.376642e-002	0.0	8.290500e-001	2.236196e-002	0.0	8.407700e-001	2.097463e-002	0.0	8.521600e-001	1.960709e-002	0.0	8.631800e-001	1.826569e-002	0.0	8.738500e-001	1.694956e-002	0.0	8.841500e-001	1.566269e-002	0.0	8.940600e-001	1.440916e-002	0.0	9.035800e-001	1.319056e-002	0.0	9.127000e-001	1.200973e-002	0.0	9.214000e-001	1.087086e-002	0.0	9.296900e-001	9.774221e-003	0.0	9.375400e-001	8.725349e-003	0.0	9.449600e-001	7.724467e-003	0.0	9.519400e-001	6.774429e-003	0.0	9.584700e-001	5.878077e-003	0.0	9.645400e-001	5.038225e-003	0.0	9.701500e-001	4.256269e-003	0.0	9.752800e-001	3.536324e-003	0.0	9.799500e-001	2.876826e-003	0.0	9.841300e-001	2.283177e-003	0.0	9.878400e-001	1.753610e-003	0.0	9.910500e-001	1.293364e-003	0.0	9.937800e-001	9.004365e-004	0.0	9.960200e-001	5.769984e-004	0.0	9.977600e-001	3.251112e-004	0.0	9.990000e-001	1.452538e-004	0.0	9.997500e-001	3.632897e-005	0.0	1.000000e+000	0.000000e+000	0.0	1.984229e+001	2.506660e+000	0.0	1.937166e+001	4.973800e+000	0.0	1.859553e+001	7.362490e+000	0.0	1.752613e+001	9.635070e+000	0.0	1.618034e+001	1.175571e+001	0.0	1.457937e+001	1.369094e+001	0.0	1.274848e+001	1.541027e+001	0.0	1.071654e+001	1.688656e+001	0.0	8.515590e+000	1.809654e+001	0.0	6.180340e+000	1.902113e+001	0.0	3.747630e+000	1.964575e+001	0.0	1.255810e+000	1.996053e+001	0.0	-1.255810e+000	1.996053e+001	0.0	-3.747630e+000	1.964574e+001	0.0	-6.180340e+000	1.902113e+001	0.0	-8.515590e+000	1.809654e+001	0.0	-1.071654e+001	1.688656e+001	0.0	-1.274848e+001	1.541026e+001	0.0	-1.457937e+001	1.369094e+001	0.0	-1.618034e+001	1.175570e+001	0.0	-1.752613e+001	9.635070e+000	0.0	-1.859553e+001	7.362490e+000	0.0	-1.937166e+001	4.973800e+000	0.0	-1.984229e+001	2.506660e+000	0.0	-2.000000e+001	0.000000e+000	0.0	-1.984229e+001	-2.506670e+000	0.0	-1.937166e+001	-4.973800e+000	0.0	-1.859553e+001	-7.362490e+000	0.0	-1.752613e+001	-9.635080e+000	0.0	-1.618034e+001	-1.175571e+001	0.0	-1.457937e+001	-1.369094e+001	0.0	-1.274848e+001	-1.541027e+001	0.0	-1.071653e+001	-1.688656e+001	0.0	-8.515580e+000	-1.809654e+001	0.0	-6.180340e+000	-1.902113e+001	0.0	-3.747620e+000	-1.964575e+001	0.0	-1.255810e+000	-1.996053e+001	0.0	1.255810e+000	-1.996053e+001	0.0	3.747630e+000	-1.964574e+001	0.0	6.180340e+000	-1.902113e+001	0.0	8.515590e+000	-1.809654e+001	0.0	1.071654e+001	-1.688656e+001	0.0	1.274848e+001	-1.541026e+001	0.0	1.457937e+001	-1.369094e+001	0.0	1.618034e+001	-1.175570e+001	0.0	1.752614e+001	-9.635070e+000	0.0	1.859553e+001	-7.362490e+000	0.0	1.937166e+001	-4.973790e+000	0.0	1.984229e+001	-2.506660e+000	0.0	2.000000e+001	0.000000e+000	0.0	6.071847e-002	-4.599300e-002	0.0	6.602584e-001	-5.397924e-002	0.0	4.259462e-001	7.123173e-002	0.0	6.898893e-001	5.084802e-002	0.0	3.793152e-001	-7.273116e-002	0.0	9.994604e-001	-7.202256e-004	0.0	9.985440e-001	-1.312423e-003	0.0	7.737237e-001	-4.090969e-002	0.0	6.898893e-001	-5.084802e-002	0.0	-1.456769e-003	6.464601e-003	0.0	7.467285e-001	-4.428984e-002	0.0	5.836398e-001	6.115854e-002	0.0	9.927702e-001	-3.577733e-003	0.0	9.898650e-001	-4.450375e-003	0.0	5.991925e-001	5.980916e-002	0.0	7.187526e-001	-4.760665e-002	0.0	-1.597618e-003	7.671995e-004	0.0	9.864674e-001	-5.394793e-003	0.0	9.825871e-001	-6.398977e-003	0.0	-1.456774e-003	-6.464600e-003	0.0	6.451948e-001	-5.549610e-002	0.0	8.243215e-001	-3.409983e-002	0.0	7.996157e-001	-3.751255e-002	0.0	3.487901e-001	7.326090e-002	0.0	8.477112e-001	-3.071909e-002	0.0	2.474256e-001	7.182160e-002	0.0	8.697233e-001	-2.738134e-002	0.0	9.916188e-003	2.185203e-002	0.0	8.902508e-001	-2.411717e-002	0.0	7.700293e-002	-5.054436e-002	0.0	9.092206e-001	-2.095307e-002	0.0	-1.944578e-003	-3.190372e-003	0.0	9.421664e-001	-1.502079e-002	0.0	9.265514e-001	-1.791177e-002	0.0	1.789678e-002	-2.766280e-002	0.0	4.259462e-001	-7.123173e-002	0.0	8.588986e-001	-2.904064e-002	0.0	9.560213e-001	-1.230722e-002	0.0	9.782180e-001	-7.479396e-003	0.0	9.680592e-001	-9.783205e-003	0.0	1.582863e-001	-6.490557e-002	0.0	8.999374e-001	-2.252139e-002	0.0	7.603588e-001	-4.260503e-002	0.0	9.971186e-001	-2.046344e-003	0.0	5.991925e-001	-5.980916e-002	0.0	4.416505e-001	-7.055456e-002	0.0	5.365104e-001	-6.487405e-002	0.0	4.732224e-001	-6.895566e-002	0.0	5.048788e-001	-6.705339e-002	0.0	4.890394e-001	-6.804024e-002	0.0	1.249513e-001	-6.028257e-002	0.0	2.780447e-002	-3.325805e-002	0.0	3.947663e-001	-7.232395e-002	0.0	4.619013e-002	-4.112
[...]
POINT_DATA 5233
SCALARS Density float 1
LOOKUP_TABLE default
1.18061890250008e+00	1.15732940250028e+00	1.14277327250049e+00	1.13056812750076e+00	1.11992383000103e+00	1.11085862750120e+00	1.10334486250112e+00	1.09738498000069e+00	1.09195396499991e+00	1.08569169324886e+00	1.07727472349766e+00	1.06697477874646e+00	1.05765967249553e+00	1.05151886149504e+00	1.04821756324496e+00	1.04611468574516e+00	1.04363587324550e+00	1.03993547124587e+00	1.03517830449621e+00	1.03000045074651e+00	1.02495351874678e+00	1.02028844099705e+00	1.01597327499734e+00	1.01188026224766e+00	1.00786804924803e+00	1.00386239324844e+00	9.99846047248892e-01	9.95824975499378e-01	9.91834902749889e-01	9.87921596750411e-01	9.84079435000928e-01	9.80190262001437e-01	9.76120708751957e-01	9.72005380252517e-01	9.67859897253147e-01	9.63736397753740e-01	9.59690829254250e-01	9.55862276254644e-01	9.51963552505125e-01	9.46718441506298e-01	9.40880231257632e-01	9.35467821758638e-01	9.30318804259370e-01	9.25640712259869e-01	9.19542216260840e-01	9.13034356011889e-01	9.07315577512294e-01	8.99567494262462e-01	8.89747243512545e-01	8.78983873012577e-01	8.68938184262325e-01	8.60276185011541e-01	8.53013218260337e-01	8.47274303258896e-01	8.40895497256950e-01	8.33810646004641e-01	8.25660367751814e-01	8.16901377748642e-01	8.10405110746044e-01	8.06680390494291e-01	8.02978599242475e-01	7.99923617240851e-01	7.99357000990059e-01	8.00434155239752e-01	8.02020835989590e-01	8.03251895489370e-01	8.04507849739079e-01	8.06548690488887e-01	8.09743833238903e-01	8.13998791239104e-01	8.18980732239427e-01	8.24503746739837e-01	8.30550157240313e-01	8.37053322740825e-01	8.43981666491349e-01	8.51345699741903e-01	8.59311809992501e-01	8.68041017243147e-01	8.77491169993825e-01	8.87637789244532e-01	8.98566184245267e-01	9.10319897496025e-01	9.23031772996806e-01	9.36792371747603e-01	9.51763872248416e-01	9.68185889999240e-01	9.86242313250068e-01	1.00622957800089e+00	1.02854949300170e+00	1.05346145175246e+00	1.08146555400314e+00	1.11303728750369e+00	1.14820609500403e+00	1.18707091000410e+00	1.22883852750380e+00	1.27151506250310e+00	1.30922453000205e+00	1.34162049500066e+00	1.34745972749983e+00	1.33609650999933e+00	1.32838398999903e+00	1.29606344999886e+00	1.22933979249873e+00	1.16962494749867e+00	1.11228595749861e+00	1.06066567399852e+00	1.01595607049841e+00	9.77759268748305e-01	9.44922225248207e-01	9.16711337498117e-01	8.92280215748038e-01	8.70787132997970e-01	8.51830018997913e-01	8.34863708247862e-01	8.19579041747820e-01	8.05828997997789e-01	7.93295862247770e-01	7.81650674497762e-01	7.70733311997763e-01	7.60406580747767e-01	7.50680654247773e-01	7.41633646497784e-01	7.33254957997809e-01	7.25327748497850e-01	7.17654158497898e-01	7.10221553497944e-01	7.03280866247987e-01	6.96798128248034e-01	6.90574999498091e-01	6.84414218248152e-01	6.78439304748211e-01	6.72835784998270e-01	6.67772039498334e-01	6.63205478248405e-01	6.59068870998487e-01	6.55228482498576e-01	6.51597399748672e-01	6.48144722998774e-01	6.44783738748879e-01	6.41528230248976e-01	6.38427594499047e-01	6.35674560999113e-01	6.33609320499326e-01	6.32277622499695e-01	6.30737029749921e-01	6.28778867750047e-01	6.27573871750321e-01	6.27681875750686e-01	6.29246246250766e-01	6.33465302000604e-01	6.39196041750157e-01	6.47845818249363e-01	6.60872582998420e-01	6.81372447247347e-01	7.06042578496261e-01	7.29159967246246e-01	7.53974373246990e-01	7.83045230497847e-01	8.08983534499230e-01	8.31841688500861e-01	8.56567638752091e-01	8.84654902503220e-01	9.12287951754078e-01	9.33953351254331e-01	9.48965592253880e-01	9.60563352502708e-01	9.70527556751725e-01	9.77052022501037e-01	9.83237813000272e-01	9.89011339249781e-01	9.93639758499594e-01	9.97121684249471e-01	1.00038712499928e+00	1.00349360599920e+00	1.00669393724918e+00	1.01008401349918e+00	1.01366004174919e+00	1.01746733399922e+00	1.02156898249928e+00	1.02598042524935e+00	1.03053505999944e+00	1.03487721324953e+00	1.03857936274962e+00	1.04154767574969e+00	1.04436508274976e+00	1.04808839649984e+00	1.05375738749992e+00	1.06142941450000e+00	1.06964242400008e+00	1.07670053750017e+00	1.08244507500025e+00	1.08772863750031e+00	1.09357533000034e+00	1.10075340250034e+00	1.10917348250033e+00	1.11906437500031e+00	1.13020903750030e+00	1.14398024250030e+00	1.15961019500035e+00	1.15441519750023e+00	9.98818497249991e-01	9.99668673749998e-01	9.99747624749998e-01	9.99614264499996e-01	9.99523545499995e-01	9.99408858749994e-01	9.99272542499994e-01	9.99102841749993e-01	9.98918575499991e-01	9.98795007999990e-01	9.98734728999989e-01	9.98818976749991e-01	9.99011373999992e-01	9.99362293999995e-01	9.99653639999996e-01	9.99889329499998e-01	1.00002284650000e+00	1.00010716050000e+00	1.00016093325000e+00	1.00018639250000e+00	1.00020169000000e+00	1.00020861500000e+00	1.00021454750000e+00	1.00022268500000e+00	1.00022956000000e+00	1.00024036000000e+00	1.00025929250000e+00	1.00028346250000e+00	1.00031726000000e+00	1.00036793000000e+00	1.00042481500000e+00	1.00051776000000e+00	1.00060807500000e+00	1.00076093500001e+00	1.00090233250001e+00	1.00107565000001e+00	1.00125664200001e+00	1.00132749875001e+00	1.00134663375001e+00	1.00124391150001e+00	1.00112873900001e+00	1.00096102475001e+00	1.00080460500001e+00	1.00065056275001e+00	1.00051338775000e+00	1.00034525450000e+00	1.00021111775000e+00	1.00022977525000e+00	9.99369039999995e-01	9.98232141499986e-01	9.44927429997684e-01	9.51851734255256e-01	6.33714765749910e-01	9.02474754003875e-01	8.25172445500082e-01	1.16058320000019e+00	1.14890960000031e+00	9.83845491001101e-01	9.59661427004258e-01	1.28104059999912e+00	9.75846862502078e-01	7.20959655495814e-01	1.11568301500079e+00	1.10759742250078e+00	7.43138418246628e-01	9.67647185753282e-01	1.33394453249943e+00	1.10076824250055e+00	1.09483544000006e+00	1.32719566250094e+00	9.45859063006781e-01	9.99329924249172e-01	9.91451621750129e-01	6.45023651498959e-01	1.00727893524833e+00	6.72588380748349e-01	1.01529753349763e+00	1.03698211224865e+00	1.02389485274706e+00	9.17664849746163e-01	1.03356658549654e+00	1.34402235000021e+00	1.04847541299554e+00	1.04252358774599e+00	1.09145505175265e+00	8.48110660007869e-01	1.01126297324796e+00	1.05650174549587e+00	1.08888552499933e+00	1.07315706274744e+00	8.42496931991037e-01	1.02863569574680e+00	9.79904370501581e-01	1.13583606750048e+00	9.30331421259317e-01	8.53489640009473e-01	9.06891184512068e-01	8.67564507511791e-01	8.87361901012280e-01	8.76656574262294e-01	8.65360044242713e-01	1.03869944650145e+00	8.34110790503235e-01	9.77183981749229e-01	8.41184552505692e-01	8.05859258991485e-01	8.12888414995059e-01	1.01611942825074e+00	8.05293201490010e-01	1.04580381299572e+00	8.49630424241573e-01	8.24073561239651e-01	9.05571080745425e-01	8.83875291494012e-01	9.18402323011220e-01	8.35830801490517e-01	9.35112342008778e-01	1.01947244274733e+00	1.06371002275210e+00	1.12515046000066e+00	1.19179382000330e+00	9.65238443248425e-01	1.03834665099627e+00	1.05159079024556e+00	1.08187581774843e+00	1.23210217249901e+00	1.00330484074873e+00	8.10105408239481e-01	9.13086836511863e-01	9.71763775252662e-01	9.87632160000619e-01	8.74215210493343e-01	8.14860517489181e-01	9.25645173259854e-01	9.56100103504554e-01	9.60349405248456e-01	1.22952840000304e+00	1.12208346500307e+00	8.17188855247023e-01	8.29694808490048e-01	1.19352598999999e+00	8.11915249989220e-01	8.94337028244708e-01	8.04452692990401e-01	8.08793281739728e-01	8.59548483010743e-01	9.63591043253816e-01	1.32024669249920e+00	1.30146697750179e+00	6.55990049998805e-01	1.33974629749969e+00	9.10093436748231e-01	8.32614849247960e-01	8.67013499998077e-01	7.49682353247863e-01	6.35749198249799e-01	1.12404431750029e+00	6.45648102249792e-01	6.31302103500771e-01	1.07375976500011e+00	1.05936068874996e+00	1.02146836974930e+00	6.34247320250640e-01	6.31545774000063e-01	6.39057676749100e-01	1.03805738324960e+00	1.02988705824943e+00	7.92026687497874e-01	1.07991403500017e+00	1.05298672124989e+00	1.04462532899974e+00	7.69396327747858e-01	8.17916923747919e-01	6.59532431498583e-01	6.67887147498417e-01	7.09445958748032e-01	6.52023381748775e-01	6.31111996750472e-01	6.37162445999443e-01	7.24330626247959e-01	7.40847397997886e-01	8.00678603748424e-01	6.96045630748126e-01	6.83466609748233e-01	8.46363253751536e-01	6.96681777246642e-01	9.69506586752015e-01	9.45718333004355e-01	9.94195614999648e-01	9.82770902750608e-01	1.00726268074923e+00	1.00113780549938e+00	1.02559455099936e+00	1.01396010099923e+00	1.04818920374981e+00	1.03413764349951e+00	1.06670462900004e+00	1.01051594224923e+00	1.01759691649925e+00	9.97917992249584e-01	1.00422371399926e+00	9.76595457001394e-01	9.88850928999937e-01	9.27913301754260e-01	9.57390512253325e-01	8.23013283000094e-01	8.73406357502618e-01	6.72137398747866e-01	7.71036568997274e-01	6.89625340248179e-01	6.77794859498288e-01	7.16657481747994e-01	7.02665535748076e-01	8.48873148248014e-01	7.32466053247922e-01	9.98741502748535e-01	8.87314009998150e-01	8.19019341989342e-01	1.12827301699887e+00	1.06396038724652e+00	9.95359881999642e-01	8.09827401493484e-01	8.97819388262227e-01	1.18028591499894e+00	9.35852192748323e-01	1.08013211799876e+00	7.80367325247865e-01	8.04468048247891e-01	6.63557329998496e-01	7.59163604497856e-01	1.08552244500023e+00	1.09126426250027e+00	6.55706158248676e-01	1.09781936750029e+00	1.10539218250030e+00	6.48495600248875e-01	6.41822084749017e-01	1.04147858874967e+00	1.17083572000036e+00	1.13596533750029e+00	1.14757849250029e+00	9.40314257007905e-01	9.95699557499994e-01	1.11414446000029e+00	6.39050141250426e-01	1.26731340250250e+00	1.15570156250330e+00	9.30738908746917e-01	8.57221401242124e-01	8.07093427239855e-01	8.16785830498035e-01	1.26126041749936e+00	1.30045087499943e+00	8.12738954490152e-01	9.63669994503835e-01	1.03679937999665e+00	1.18670480750277e+00	7.12526512995950e-01	9.59936967754190e-01	9.87460999500794e-01	1.10394609500035e+00	8.13760643242614e-01	1.01076261049826e+00	1.00288820024901e+00	9.13064890745618e-01	1.30790238500118e+00	8.25178857989709e-01	1.12398895250253e+00	1.06229156124673e+00	8.56141387241863e-01	9.67655478003339e-01	9.51222405755682e-01	8.60143049009808e-01	9.25355686246323e-01	8.34632081001607e-01	1.02757384499711e+00	9.91198840250339e-01	1.08720131349897e+00	9.80158933248634e-01	8.62200361502062e-01	1.00794118249929e+00	7.69179657497958e-01	8.90850712003322e-01	7.24567121248054e-01	1.01787792899929e+00	1.09440377500024e+00	6.53017937748864e-01	6.45787185500066e-01	1.05257612774986e+00	1.02155648949933e+00	1.10097053000025e+00	1.05802285824993e+00	1.08263030250016e+00	6.84238762748312e-01	6.56869614748775e-01	6.90018184998259e-01	7.79799869497966e-01	9.56336701004549e-01	8.30216007989987e-01	1.04791590949886e+00	7.40843421998005e-01	8.63316348998184e-01	1.07075798000005e+00	1.10848316250026e+00	1.02542794299937e+00	8.48804953241312e-01	1.18477076000022e+00	1.12627786750027e+00	1.11681986500026e+00	1.12964727824908e+00	1.21927876749924e+00	1.21979637500262e+00	1.33699392500007e+00	1.33261590499970e+00	1.09553785000218e+00	1.19437523250006e+00	9.52860333747758e-01	1.13849266500031e+00	1.11914646250049e+00	6.39680269499780e-01	9.13085981011627e-01	1.09750677000003e+00	1.01883145124763e+00	7.34784610496106e-01	1.11104407000049e+00	1.32906458500057e+00	8.54903368508458e-01	6.41792704749601e-01	1.00682286674862e+00	6.69309718248514e-01	1.01475106899793e+00	1.02308645449736e+00	9.38576910497038e-01	1.03220223824688e+00	1.04106536749643e+00	1.05156309674609e+00	1.04551742700116e+00	1.05607742224629e+00	1.06997196599739e+00	1.09140176499952e+00	8.72292008742996e-01	9.79734639001703e-01	9.83686645751248e-01	1.12828247750042e+00	8.67245104260985e-01	8.75672831261719e-01	8.85472838761938e-01	1.06953908100172e+00	8.42309223254337e-01	8.48869412506542e-01	8.16976863244339e-01	1.00356068124988e+00	1.04478933224623e+00	1.04809512674610e+00	8.63974165492425e-01	9.01623802994925e-01	9.18223660261253e-01	9.35105724008777e-01	1.07789114099814e+00	1.08504821749888e+00	9.71644540002788e-01	9.75748335252202e-01	8.91060171744252e-01	8.81285308493607e-01	9.24929439510098e-01	9.30719240509196e-01	9.85269742999188e-01	9.68417439748477e-01	1.15436405000274e+00	8.20022513995913e-01	8.26232353998503e-01	8.42109796990804e-01	8.35925718490364e-01	8.21253152989602e-01	8.18572487489721e-01	8.11079569740354e-01	8.11110180991035e-01	8.16689017739931e-01	1.32502389999954e+00	1.25298075250227e+00	8.81928464998256e-01	1.08834446750021e+00	6.53672549749302e-01	6.40862261750539e-01	6.36635967750633e-01	6.35633670250629e-01	1.07688760750011e+00	1.06431368624999e+00	1.03738178649958e+00	6.35652208500159e-01	6.37220777749886e-01	6.43671893249190e-01	1.03349149574951e+00	1.04816594774979e+00	8.30937333498073e-01	8.46390052748122e-01	6.78919922748373e-01	6.73916847998440e-01	7.32427424998027e-01	7.49966576747987e-01	7.59342730247967e-01	9.94270528749772e-01	9.66194821002550e-01	9.54226936753863e-01	9.88359088000200e-01	1.00501941649932e+00	1.02944376074944e+00	1.01437686949928e+00	1.01105409249928e+00	1.00175451499952e+00	9.98587918499659e-01	9.82114366001006e-01	9.75926866501669e-01	9.40280715254422e-01	9.19560450004099e-01	8.36897138250921e-01	8.14491986249179e-01	6.87043481497188e-01	6.66436073498287e-01	7.89727073747867e-01	7.59080850996898e-01	6.96137841748211e-01	7.02807233748168e-01	7.09805044998127e-01	7.17142322248090e-01	1.01235313274875e+00	9.02659276998338e-01	9.25853895748430e-01	9.95038390749883e-01	9.98959499499435e-01	8.96162283011870e-01	9.05499230011821e-01	1.17478973249917e+00	9.51566185498527e-01	7.91284509247984e-01	8.03603670498007e-01	6.60798086498683e-01	6.64934945748596e-01	6.46286451998980e-01	6.49453123248917e-01	1.04448525224972e+00	1.04100929549965e+00	9.40090065258048e-01	9.45391788257063e-01	1.02354340700054e+00	1.28383407500180e+00	8.14892606990076e-01	1.30917553000081e+00	8.43473530752772e-01	8.18902579490487e-01	9.91291665000499e-01	9.12948424511312e-01	1.03982564549682e+00	1.09700489000021e+00	1.09101703000019e+00	1.06254243099995e+00	1.16957599749936e+00	1.10392373500022e+00	1.13651566750028e+00	1.15073203250031e+00	1.12998528000025e+00	1.17518055250014e+00	1.09914707750183e+00	1.30755712749977e+00	9.21123288745867e-01	1.04377492749667e+00	1.10684180000020e+00	7.04182556746347e-01	1.15034033750022e+00	1.21085316000224e+00	9.67948982753342e-01	1.26672445500168e+00	9.71885903002843e-01	1.12506718000211e+00	1.01831112249792e+00	1.18156480500234e+00	8.21636532243588e-01	1.01432552474822e+00	9.64145597753769e-01	1.11432359500028e+00	1.15290611000229e+00	1.07976637500011e+00	6.53774246749702e-01	1.05218370724983e+00	8.52561652501504e-01	1.11064993500024e+00	6.47671940250338e-01	6.80533363498462e-01	6.62102598998766e-01	7.41786023998096e-01	8.44481228498227e-01	1.14463197250028e+00	1.28670706000127e+00	1.24169108749953e+00	1.02394872599894e+00	1.27987463749965e+00	1.06767012024749e+00	9.33493367746541e-01	1.32761155249988e+00	8.62973153492176e-01	8.67442317260064e-01	1.07473810150143e+00	1.09257025499916e+00	1.00870791449934e+00	9.94381197749900e-01	8.81033442502696e-01	1.08536474250015e+00	1.05703408424989e+00	1.02533722824940e+00	1.02165417324936e+00	6.66370028748687e-01	6.75493918998532e-01	6.97355010498289e-01	7.91304400998078e-01	9.56576455504657e-01	9.60557171504067e-01	8.36824831740371e-01	1.05715429799905e+00	7.50177785248081e-01	1.07417338750006e+00	1.11802739000025e+00	1.13037415499926e+00	1.20805523249944e+00	1.23951409750200e+00	1.31977750500033e+00	1.05172446475095e+00	1.16650038000007e+00	1.15704491250015e+00	1.07475980874806e+00	1.10031375499999e+00	7.27501584995636e-01	8.61552266508836e-01	6.46648051749651e-01	1.00648801274888e+00	1.01038742674853e+00	1.02243078424766e+00	1.02672072024742e+00	9.61087298997885e-01	9.46810934997216e-01	1.03110635374720e+00	1.03556873299700e+00	1.05564471349670e+00	1.06110184299701e+00	1.09415817999966e+00	9.83791898501344e-01	9.87566381250919e-01	1.12191580000027e+00	8.75144772761048e-01	8.84183954761471e-01	8.50212293005160e-01	8.56498866007285e-01	1.03071306675041e+00	1.04748854824657e+00	1.05124949674657e+00	8.79771595493344e-01	8.71134390242761e-01	9.18795454511050e-01	9.24539402510275e-01	1.08163283999866e+00	1.08800061749920e+00	9.75876167252292e-01	9.79854641751780e-01	9.09598593995206e-01	8.98720199744548e-01	8.88791095243918e-01	9.31080031009128e-01	9.35695398758629e-01	1.01148990124983e+00	9.93423756999203e-01	9.76557081248547e-01	8.24137535495039e-01	8.28238784246987e-01	8.35622269499919e-01	8.55685328491633e-01	8.48973100241162e-01	8.42660565740735e-01	8.31899053990121e-01	8.28140610740062e-01	8.17662006740816e-01	8.18569922491818e-01	8.25555373490201e-01	8.96934401748432e-01	6.43284754750524e-01	6.40638688250647e-01	1.06836478500001e+00	6.40767790500328e-01	6.41569171999897e-01	6.43883483749732e-01	6.48794634749332e-01	1.03682409574957e+00	8.60523013248287e-01	8.78021168248355e-01	6.85755827248399e-01	6.91473999248342e-01	7.59391693998077e-01	7.69812805998079e-01	7.80481092498074e-01	9.63046097003120e-01	1.03302017649951e+00	1.02914293974945e+00	1.01812780674934e+00	1.01479183674933e+00	1.01170783249933e+00	1.00572670824942e+00	1.00249118099963e+00	9.99222142249705e-01	9.88052422000513e-01	9.81825726751318e-01	9.74937240001937e-01	9.51336471254262e-01	9.34763160004228e-01	9.10293384753863e-01	8.28974287500076e-01	6.79389749247711e-01	6.63754595998747e-01	8.06699819248580e-01	7.78349574997286e-01	7.49686669746535e-01	7.03692619498244e-01	7.10276520248204e-01	7.17618617998175e-01	7.25389405498146e-01	7.33631565998121e-01	9.17559655748521e-01	9.40614599998619e-01	9.95005998750075e-01	9.98826279749656e-01	1.00261710349926e+00	8.94516192261504e-01	9.04371544761468e-01	9.66154295498721e-01	9.93683512748827e-01	8.03051833748102e-01	8.15932096748138e-01	8.29699614498180e-01	6.70841847998606e-01	6.51491982248982e-01	6.54729670998874e-01	6.58244845998833e-01	1.04799295124977e+00	1.04421283699970e+00	1.04055632224964e+00	9.40376381508029e-01	9.45446552007184e-01	9.50872166756046e-01	8.23432820990342e-01	8.21165151240403e-01	1.28888969500096e+00	9.29394022496147e-01	1.11153966500022e+00	1.08225520750010e+00	9.19283927760697e-01	1.28750718749996e+00	1.13780218500020e+00	1.04287768174707e+00	1.04684365724700e+00	1.05657886925075e+00	1.09894138000019e+00	6.52123667250405e-01	1.26742815500130e+00	1.06370000699922e+00	1.19999114500193e+00	1.06108744499992e+00	1.10513053250020e+00	1.22461074749969e+00	8.44662368000909e-01	1.19537817999960e+00	1.15338064500031e+00	1.16986101500004e+00	9.94983171250236e-01	8.71086306742565e-01	1.10118669750150e+00	8.52760485253761e-01	9.41847066746781e-01	8.69247015009028e-01	8.26496564240973e-01	1.08762581500014e+00	6.94515795496950e-01	1.05611208324987e+00	1.05160241099981e+00	9.93722542750103e-01	7.61598907498172e-01	6.94505840748435e-01	1.10274631499994e+00	8.74350059998449e-01	1.01812551124820e+00	1.12531316500025e+00	1.09317246500016e+00	1.12309136250015e+00	1.07854422999856e+00	1.12441573750174e+00	9.68246401253304e-01	1.22524571000179e+00	9.72336581502839e-01	9.75964823002382e-01	1.14938066250191e+00	1.10919204500007e+00	1.17482213250197e+00	1.00892569974939e+00	6.55427377249998e-01	6.78207981498616e-01	1.25846349749980e+00	1.09546315774932e+00	8.71324804002160e-01	1.02531500674944e+00	6.73623825248684e-01	6.83486810248552e-01	6.88622779748489e-01	9.60990014754013e-01	9.64944079503590e-01	1.07692436000006e+00	1.12812004249942e+00	1.16221900249951e+00	1.24902315000158e+00	1.30134081250057e+00	1.07824269500116e+00	1.07221418749810e+00	1.09661922749972e+00	7.22481727995614e-01	1.01027503249878e+00	1.01414526299848e+00	1.02216837824794e+00	1.02623671824772e+00	9.69127445248028e-01	9.55028331997410e-01	1.03042424849752e+00	1.03467163274734e+00	1.03884799949719e+00	1.06013060274733e+00	1.06595542574767e+00	9.87491479751031e-01	9.91429585500630e-01	1.11605938000014e+00	8.75948687760114e-01	8.84202637760781e-01	8.58757251505954e-01	8.64124546507735e-01	1.05081192049700e+00	1.05506424349710e+00	8.88117066243749e-01	8.78821161493135e-01	9.25162267760140e-01	1.08464520749900e+00	1.09064729499940e+00	9.79985284501856e-01	9.84351641501377e-01	9.17741525745506e-01	9.07011816244886e-01	8.97413352494319e-01	9.30890740