# vtk DataFile Version 3.0
vtk output
ASCII
DATASET UNSTRUCTURED_GRID
POINTS 5233 float
9.997500e-001	-3.633243e-005	0.0	9.990000e-001	-1.454724e-004	0.0	9.977600e-001	-3.275031e-004	0.0	9.960200e-001	-5.898590e-004	0.0	9.937800e-001	-9.466004e-004	0.0	9.910500e-001	-1.419737e-003	0.0	9.878400e-001	-2.037010e-003	0.0	9.841300e-001	-2.828579e-003	0.0	9.799500e-001	-3.796268e-003	0.0	9.752800e-001	-4.921778e-003	0.0	9.701500e-001	-6.141106e-003	0.0	9.645400e-001	-7.379993e-003	0.0	9.584700e-001	-8.557139e-003	0.0	9.519400e-001	-9.625112e-003	0.0	9.449600e-001	-1.058117e-002	0.0	9.375400e-001	-1.146929e-002	0.0	9.296900e-001	-1.236366e-002	0.0	9.214000e-001	-1.334682e-002	0.0	9.127000e-001	-1.448056e-002	0.0	9.035800e-001	-1.580186e-002	0.0	8.940600e-001	-1.731048e-002	0.0	8.841500e-001	-1.897877e-002	0.0	8.738500e-001	-2.076162e-002	0.0	8.631800e-001	-2.260164e-002	0.0	8.521600e-001	-2.444190e-002	0.0	8.407700e-001	-2.623914e-002	0.0	8.290500e-001	-2.795142e-002	0.0	8.170100e-001	-2.955452e-002	0.0	8.046400e-001	-3.103860e-002	0.0	7.919700e-001	-3.239906e-002	0.0	7.790100e-001	-3.364191e-002	0.0	7.657800e-001	-3.477749e-002	0.0	7.522800e-001	-3.582058e-002	0.0	7.385200e-001	-3.678555e-002	0.0	7.245300e-001	-3.768460e-002	0.0	7.103200e-001	-3.852947e-002	0.0	6.958900e-001	-3.932990e-002	0.0	6.812700e-001	-4.009141e-002	0.0	6.664700e-001	-4.081838e-002	0.0	6.515000e-001	-4.151327e-002	0.0	6.363800e-001	-4.217674e-002	0.0	6.211300e-001	-4.280869e-002	0.0	6.057600e-001	-4.340910e-002	0.0	5.902800e-001	-4.397796e-002	0.0	5.747100e-001	-4.451514e-002	0.0	5.590600e-001	-4.502130e-002	0.0	5.433600e-001	-4.549689e-002	0.0	5.276100e-001	-4.594362e-002	0.0	5.118400e-001	-4.636254e-002	0.0	4.960500e-001	-4.675554e-002	0.0	4.802700e-001	-4.712359e-002	0.0	4.645100e-001	-4.746784e-002	0.0	4.487800e-001	-4.778893e-002	0.0	4.331100e-001	-4.808658e-002	0.0	4.175000e-001	-4.836044e-002	0.0	4.019700e-001	-4.860917e-002	0.0	3.865400e-001	-4.883081e-002	0.0	3.712300e-001	-4.902294e-002	0.0	3.560400e-001	-4.918287e-002	0.0	3.409900e-001	-4.930729e-002	0.0	3.261100e-001	-4.939266e-002	0.0	3.114000e-001	-4.943547e-002	0.0	2.968700e-001	-4.943207e-002	0.0	2.825500e-001	-4.937889e-002	0.0	2.684500e-001	-4.927256e-002	0.0	2.545700e-001	-4.910972e-002	0.0	2.409400e-001	-4.888761e-002	0.0	2.275700e-001	-4.860362e-002	0.0	2.144700e-001	-4.825540e-002	0.0	2.016600e-001	-4.784127e-002	0.0	1.891400e-001	-4.735922e-002	0.0	1.769300e-001	-4.680821e-002	0.0	1.650400e-001	-4.618717e-002	0.0	1.534900e-001	-4.549585e-002	0.0	1.422900e-001	-4.473380e-002	0.0	1.314400e-001	-4.389988e-002	0.0	1.209500e-001	-4.299355e-002	0.0	1.108500e-001	-4.201632e-002	0.0	1.011300e-001	-4.096597e-002	0.0	9.181000e-002	-3.984308e-002	0.0	8.290000e-002	-3.864715e-002	0.0	7.440000e-002	-3.737601e-002	0.0	6.633000e-002	-3.603010e-002	0.0	5.869000e-002	-3.460647e-002	0.0	5.149000e-002	-3.310336e-002	0.0	4.474000e-002	-3.151882e-002	0.0	3.844000e-002	-2.984806e-002	0.0	3.260000e-002	-2.808811e-002	0.0	2.723000e-002	-2.623617e-002	0.0	2.232000e-002	-2.428148e-002	0.0	1.790000e-002	-2.222897e-002	0.0	1.395000e-002	-2.006173e-002	0.0	1.049000e-002	-1.778197e-002	0.0	7.520000e-003	-1.538293e-002	0.0	5.040000e-003	-1.285757e-002	0.0	3.050000e-003	-1.019826e-002	0.0	1.560000e-003	-7.417413e-003	0.0	5.600000e-004	-4.496748e-003	0.0	6.000000e-005	-1.467183e-003	0.0	0.000000e+000	0.000000e+000	0.0	6.000000e-005	1.358875e-003	0.0	5.600000e-004	4.141648e-003	0.0	1.560000e-003	6.906106e-003	0.0	3.050000e-003	9.642531e-003	0.0	5.040000e-003	1.236629e-002	0.0	7.520000e-003	1.505555e-002	0.0	1.049000e-002	1.770612e-002	0.0	1.395000e-002	2.031294e-002	0.0	1.790000e-002	2.287113e-002	0.0	2.232000e-002	2.536563e-002	0.0	2.723000e-002	2.780554e-002	0.0	3.260000e-002	3.017421e-002	0.0	3.844000e-002	3.247570e-002	0.0	4.474000e-002	3.470512e-002	0.0	5.149000e-002	3.685866e-002	0.0	5.869000e-002	3.893594e-002	0.0	6.633000e-002	4.093350e-002	0.0	7.440000e-002	4.284829e-002	0.0	8.290000e-002	4.467951e-002	0.0	9.181000e-002	4.642195e-002	0.0	1.011300e-001	4.807463e-002	0.0	1.108500e-001	4.963431e-002	0.0	1.209500e-001	5.109643e-002	0.0	1.314400e-001	5.246071e-002	0.0	1.422900e-001	5.372136e-002	0.0	1.534900e-001	5.487570e-002	0.0	1.650400e-001	5.592197e-002	0.0	1.769300e-001	5.685734e-002	0.0	1.891400e-001	5.767862e-002	0.0	2.016600e-001	5.838384e-002	0.0	2.144700e-001	5.897095e-002	0.0	2.275700e-001	5.943929e-002	0.0	2.409400e-001	5.978778e-002	0.0	2.545700e-001	6.001630e-002	0.0	2.684500e-001	6.012518e-002	0.0	2.825500e-001	6.011533e-002	0.0	2.968700e-001	5.998837e-002	0.0	3.114000e-001	5.974630e-002	0.0	3.261100e-001	5.939208e-002	0.0	3.409900e-001	5.892898e-002	0.0	3.560400e-001	5.836027e-002	0.0	3.712300e-001	5.769073e-002	0.0	3.865400e-001	5.692547e-002	0.0	4.019700e-001	5.606896e-002	0.0	4.175000e-001	5.512706e-002	0.0	4.331100e-001	5.410611e-002	0.0	4.487800e-001	5.301290e-002	0.0	4.645100e-001	5.185312e-002	0.0	4.802700e-001	5.063485e-002	0.0	4.960500e-001	4.936493e-002	0.0	5.118400e-001	4.805023e-002	0.0	5.276100e-001	4.669926e-002	0.0	5.433600e-001	4.531778e-002	0.0	5.590600e-001	4.391375e-002	0.0	5.747100e-001	4.249178e-002	0.0	5.902800e-001	4.105831e-002	0.0	6.057600e-001	3.961676e-002	0.0	6.211300e-001	3.817003e-002	0.0	6.363800e-001	3.671843e-002	0.0	6.515000e-001	3.526046e-002	0.0	6.664700e-001	3.379375e-002	0.0	6.812700e-001	3.231427e-002	0.0	6.958900e-001	3.081564e-002	0.0	7.103200e-001	2.929055e-002	0.0	7.245300e-001	2.773369e-002	0.0	7.385200e-001	2.613726e-002	0.0	7.522800e-001	2.449618e-002	0.0	7.657800e-001	2.281062e-002	0.0	7.790100e-001	2.108230e-002	0.0	7.919700e-001	1.931617e-002	0.0	8.046400e-001	1.752499e-002	0.0	8.170100e-001	1.572540e-002	0.0	8.290500e-001	1.394159e-002	0.0	8.407700e-001	1.219504e-002	0.0	8.521600e-001	1.051104e-002	0.0	8.631800e-001	8.917313e-003	0.0	8.738500e-001	7.427666e-003	0.0	8.841500e-001	6.054263e-003	0.0	8.940600e-001	4.800938e-003	0.0	9.035800e-001	3.663179e-003	0.0	9.127000e-001	2.637876e-003	0.0	9.214000e-001	1.730800e-003	0.0	9.296900e-001	9.592143e-004	0.0	9.375400e-001	3.596392e-004	0.0	9.449600e-001	-2.823645e-005	0.0	9.519400e-001	-1.741639e-004	0.0	9.584700e-001	-8.077385e-005	0.0	9.645400e-001	2.027931e-004	0.0	9.701500e-001	5.858034e-004	0.0	9.752800e-001	9.573285e-004	0.0	9.799500e-001	1.223102e-003	0.0	9.841300e-001	1.327057e-003	0.0	9.878400e-001	1.266135e-003	0.0	9.910500e-001	1.078944e-003	0.0	9.937800e-001	8.228656e-004	0.0	9.960200e-001	5.555313e-004	0.0	9.977600e-001	3.211358e-004	0.0	9.990000e-001	1.448913e-004	0.0	9.997500e-001	3.632323e-005	0.0	1.000000e+000	0.000000e+000	0.0	1.984229e+001	2.506660e+000	0.0	1.937166e+001	4.973800e+000	0.0	1.859553e+001	7.362490e+000	0.0	1.752613e+001	9.635070e+000	0.0	1.618034e+001	1.175571e+001	0.0	1.457937e+001	1.369094e+001	0.0	1.274848e+001	1.541027e+001	0.0	1.071654e+001	1.688656e+001	0.0	8.515590e+000	1.809654e+001	0.0	6.180340e+000	1.902113e+001	0.0	3.747630e+000	1.964575e+001	0.0	1.255810e+000	1.996053e+001	0.0	-1.255810e+000	1.996053e+001	0.0	-3.747630e+000	1.964574e+001	0.0	-6.180340e+000	1.902113e+001	0.0	-8.515590e+000	1.809654e+001	0.0	-1.071654e+001	1.688656e+001	0.0	-1.274848e+001	1.541026e+001	0.0	-1.457937e+001	1.369094e+001	0.0	-1.618034e+001	1.175570e+001	0.0	-1.752613e+001	9.635070e+000	0.0	-1.859553e+001	7.362490e+000	0.0	-1.937166e+001	4.973800e+000	0.0	-1.984229e+001	2.506660e+000	0.0	-2.000000e+001	0.000000e+000	0.0	-1.984229e+001	-2.506670e+000	0.0	-1.937166e+001	-4.973800e+000	0.0	-1.859553e+001	-7.362490e+000	0.0	-1.752613e+001	-9.635080e+000	0.0	-1.618034e+001	-1.175571e+001	0.0	-1.457937e+001	-1.369094e+001	0.0	-1.274848e+001	-1.541027e+001	0.0	-1.071653e+001	-1.688656e+001	0.0	-8.515580e+000	-1.809654e+001	0.0	-6.180340e+000	-1.902113e+001	0.0	-3.747620e+000	-1.964575e+001	0.0	-1.255810e+000	-1.996053e+001	0.0	1.255810e+000	-1.996053e+001	0.0	3.747630e+000	-1.964574e+001	0.0	6.180340e+000	-1.902113e+001	0.0	8.515590e+000	-1.809654e+001	0.0	1.071654e+001	-1.688656e+001	0.0	1.274848e+001	-1.541026e+001	0.0	1.457937e+001	-1.369094e+001	0.0	1.618034e+001	-1.175570e+001	0.0	1.752614e+001	-9.635070e+000	0.0	1.859553e+001	-7.362490e+000	0.0	1.937166e+001	-4.973790e+000	0.0	1.984229e+001	-2.506660e+000	0.0	2.000000e+001	0.000000e+000	0.0	6.105719e-002	-4.239171e-002	0.0	6.598958e-001	-5.486438e-002	0.0	4.261328e-001	6.889241e-002	0.0	6.899732e-001	4.488606e-002	0.0	3.791657e-001	-6.310021e-002	0.0	9.994682e-001	-7.116641e-004	0.0	9.985606e-001	-1.307986e-003	0.0	7.736729e-001	-4.606247e-002	0.0	6.895825e-001	-5.305379e-002	0.0	-1.489001e-003	6.439191e-003	0.0	7.465823e-001	-4.871413e-002	0.0	5.837737e-001	5.607699e-002	0.0	9.928283e-001	-3.694114e-003	0.0	9.899469e-001	-4.690603e-003	0.0	5.993170e-001	5.455066e-002	0.0	7.185197e-001	-5.101695e-002	0.0	-1.623644e-003	7.167643e-004	0.0	9.865795e-001	-5.831805e-003	0.0	9.827332e-001	-7.113942e-003	0.0	-1.480003e-003	-6.816226e-003	0.0	6.448115e-001	-5.569454e-002	0.0	8.244481e-001	-3.946685e-002	0.0	7.996609e-001	-4.300155e-002	0.0	3.489510e-001	7.237530e-002	0.0	8.478912e-001	-3.553616e-002	0.0	2.475110e-001	7.233841e-002	0.0	8.699253e-001	-3.138211e-002	0.0	9.860359e-003	2.214887e-002	0.0	8.904484e-001	-2.731365e-002	0.0	7.736407e-002	-4.590032e-002	0.0	9.094048e-001	-2.364028e-002	0.0	-1.970563e-003	-3.381846e-003	0.0	9.423760e-001	-1.764511e-002	0.0	9.267368e-001	-2.048147e-002	0.0	1.806550e-002	-2.724475e-002	0.0	4.257109e-001	-6.265474e-002	0.0	8.590935e-001	-3.346737e-002	0.0	9.562578e-001	-1.476122e-002	0.0	9.783989e-001	-8.547680e-003	0.0	9.682900e-001	-1.164614e-002	0.0	1.586115e-001	-5.654860e-002	0.0	9.001279e-001	-2.541352e-002	0.0	7.602596e-001	-4.743622e-002	0.0	9.971461e-001	-2.057001e-003	0.0	5.987765e-001	-5.789949e-002	0.0	4.413891e-001	-6.242113e-002	0.0	5.361180e-001	-6.019579e-002	0.0	4.729118e-001	-6.183565e-002	0.0	5.045231e-001	-6.109440e-002	0.0	4.887057e-001	-6.148347e-002	0.0	1.253124e-001	-5.317524e-002	0.0	2.803446e-002	-3.207787e-002	0.0	3.945869e-001	-6.299678e-002	0.0	4.649456e-002	-3.
[...]
POINT_DATA 5233

SCALARS Density float 1
LOOKUP_TABLE default
1.181216e+000	1.159737e+000	1.149492e+000	1.143004e+000	1.138139e+000	1.132770e+000	1.124113e+000	1.110373e+000	1.090454e+000	1.064863e+000	1.035593e+000	1.008223e+000	9.909563e-001	9.876291e-001	9.956826e-001	1.009264e+000	1.022560e+000	1.031264e+000	1.033569e+000	1.029363e+000	1.019319e+000	1.004537e+000	9.862996e-001	9.660024e-001	9.448570e-001	9.240331e-001	9.047017e-001	8.883228e-001	8.763531e-001	8.695699e-001	8.676424e-001	8.692676e-001	8.730078e-001	8.775999e-001	8.822332e-001	8.864133e-001	8.898947e-001	8.926665e-001	8.947586e-001	8.963395e-001	8.975155e-001	8.984557e-001	8.992532e-001	9.000026e-001	9.007360e-001	9.014637e-001	9.021521e-001	9.027769e-001	9.032529e-001	9.035390e-001	9.035522e-001	9.032648e-001	9.026469e-001	9.016609e-001	9.002529e-001	8.984036e-001	8.960955e-001	8.933792e-001	8.902872e-001	8.868372e-001	8.830621e-001	8.789611e-001	8.745715e-001	8.699251e-001	8.650984e-001	8.601238e-001	8.550680e-001	8.499342e-001	8.448288e-001	8.399250e-001	8.355928e-001	8.322125e-001	8.300171e-001	8.288583e-001	8.285209e-001	8.288492e-001	8.299252e-001	8.318069e-001	8.343695e-001	8.375302e-001	8.413291e-001	8.458017e-001	8.511223e-001	8.574550e-001	8.651344e-001	8.746496e-001	8.864319e-001	9.010797e-001	9.194234e-001	9.422720e-001	9.710951e-001	1.007400e+000	1.051923e+000	1.105036e+000	1.165132e+000	1.228131e+000	1.284922e+000	1.335005e+000	1.352741e+000	1.350052e+000	1.348752e+000	1.326189e+000	1.273865e+000	1.222589e+000	1.168369e+000	1.116617e+000	1.069559e+000	1.027782e+000	9.909408e-001	9.588167e-001	9.308213e-001	9.061831e-001	8.844931e-001	8.652298e-001	8.480246e-001	8.325973e-001	8.185277e-001	8.054643e-001	7.932916e-001	7.819187e-001	7.713569e-001	7.615202e-001	7.521186e-001	7.427929e-001	7.334777e-001	7.244427e-001	7.160465e-001	7.081560e-001	7.004465e-001	6.927046e-001	6.851151e-001	6.779172e-001	6.712825e-001	6.651478e-001	6.594423e-001	6.540428e-001	6.488838e-001	6.439689e-001	6.392188e-001	6.346976e-001	6.304450e-001	6.266937e-001	6.233957e-001	6.206683e-001	6.177914e-001	6.155809e-001	6.140758e-001	6.145223e-001	6.128751e-001	6.074230e-001	6.304729e-001	7.734974e-001	9.637077e-001	1.001310e+000	9.902099e-001	9.841610e-001	9.855670e-001	9.861392e-001	9.859713e-001	9.862199e-001	9.868065e-001	9.875845e-001	9.886371e-001	9.901304e-001	9.922170e-001	9.950765e-001	9.988527e-001	1.003680e+000	1.009572e+000	1.016544e+000	1.024427e+000	1.032985e+000	1.041935e+000	1.050889e+000	1.059531e+000	1.067550e+000	1.074762e+000	1.081177e+000	1.086990e+000	1.092612e+000	1.098499e+000	1.104944e+000	1.111693e+000	1.117900e+000	1.122079e+000	1.122462e+000	1.117355e+000	1.105683e+000	1.087657e+000	1.065842e+000	1.045319e+000	1.031875e+000	1.030375e+000	1.041574e+000	1.061262e+000	1.084181e+000	1.107090e+000	1.130183e+000	1.152868e+000	1.150975e+000	9.992836e-001	9.998386e-001	9.999171e-001	9.998621e-001	9.998358e-001	9.997998e-001	9.997519e-001	9.996866e-001	9.996119e-001	9.995586e-001	9.995316e-001	9.995687e-001	9.996590e-001	9.998194e-001	9.999519e-001	1.000054e+000	1.000109e+000	1.000139e+000	1.000154e+000	1.000159e+000	1.000160e+000	1.000158e+000	1.000157e+000	1.000159e+000	1.000160e+000	1.000165e+000	1.000174e+000	1.000186e+000	1.000203e+000	1.000228e+000	1.000256e+000	1.000298e+000	1.000336e+000	1.000394e+000	1.000439e+000	1.000479e+000	1.000507e+000	1.000495e+000	1.000474e+000	1.000427e+000	1.000385e+000	1.000330e+000	1.000277e+000	1.000224e+000	1.000177e+000	1.000111e+000	1.000056e+000	1.000092e+000	9.995903e-001	9.989094e-001	8.694790e-001	8.976566e-001	6.208722e-001	9.904065e-001	8.963589e-001	1.160822e+000	1.151951e+000	8.745371e-001	8.938331e-001	1.307512e+000	8.799653e-001	9.858041e-001	1.129357e+000	1.121640e+000	9.863664e-001	8.877206e-001	1.346502e+000	1.110991e+000	1.096270e+000	1.315101e+000	8.989161e-001	9.039041e-001	8.801021e-001	6.384796e-001	9.399733e-001	6.764597e-001	9.776902e-001	1.083171e+000	1.009039e+000	8.557496e-001	1.026012e+000	1.344044e+000	1.006755e+000	1.023624e+000	9.940113e-001	9.023019e-001	9.591368e-001	1.000386e+000	1.077201e+000	1.030577e+000	8.354448e-001	1.019765e+000	8.765253e-001	1.142399e+000	9.014013e-001	9.034494e-001	9.039854e-001	9.046998e-001	9.047833e-001	9.048833e-001	8.370466e-001	9.394041e-001	8.987572e-001	8.893566e-001	9.007458e-001	8.833622e-001	8.904990e-001	9.192387e-001	8.750639e-001	1.015973e+000	8.352273e-001	8.424938e-001	8.504433e-001	8.421765e-001	9.027572e-001	8.366042e-001	9.006924e-001	9.946838e-001	9.639788e-001	1.135770e+000	1.121038e+000	1.006900e+000	1.027282e+000	1.000029e+000	1.054486e+000	1.267610e+000	9.211789e-001	8.612201e-001	9.034031e-001	8.838983e-001	8.752774e-001	8.391781e-001	8.515658e-001	9.020946e-001	8.960083e-001	8.784523e-001	1.173300e+000	1.030182e+000	8.935985e-001	8.389809e-001	1.193521e+000	8.564173e-001	8.459521e-001	8.793370e-001	8.659537e-001	9.042367e-001	8.910838e-001	1.338800e+000	1.275483e+000	9.065084e-001	1.347936e+000	9.461656e-001	8.600999e-001	8.982239e-001	7.692333e-001	6.235552e-001	1.099428e+000	6.563429e-001	6.169974e-001	1.076187e+000	1.103181e+000	1.081975e+000	6.112292e-001	6.180157e-001	6.301655e-001	1.104172e+000	1.093016e+000	8.151360e-001	1.060755e+000	1.110633e+000	1.112719e+000	7.904635e-001	8.438244e-001	6.587327e-001	6.702099e-001	7.222003e-001	6.481921e-001	6.175909e-001	6.268077e-001	7.398503e-001	7.593091e-001	9.875863e-001	7.060464e-001	6.904199e-001	9.883678e-001	9.969524e-001	1.000096e+000	9.939630e-001	1.022885e+000	1.009688e+000	1.054906e+000	1.038645e+000	1.087538e+000	1.069643e+000	1.113570e+000	1.098604e+000	1.091278e+000	1.062560e+000	1.076083e+000	1.030547e+000	1.046849e+000	1.004431e+000	1.015885e+000	9.919285e-001	9.966406e-001	9.877331e-001	9.892623e-001	1.008442e+000	9.876146e-001	6.981198e-001	6.832083e-001	7.307424e-001	7.140858e-001	8.780969e-001	7.495067e-001	1.042990e+000	9.208158e-001	8.468345e-001	1.173710e+000	1.010863e+000	8.897469e-001	8.870831e-001	9.044662e-001	1.222046e+000	9.746950e-001	1.126952e+000	8.023334e-001	8.289075e-001	6.643185e-001	7.795007e-001	1.049015e+000	1.044719e+000	6.533671e-001	1.049833e+000	1.062716e+000	6.432565e-001	6.341049e-001	1.109194e+000	1.167001e+000	1.119488e+000	1.137830e+000	8.998817e-001	9.027573e-001	1.080230e+000	6.120178e-001	1.226828e+000	1.072815e+000	8.620132e-001	8.357652e-001	8.705764e-001	8.402151e-001	1.285127e+000	1.318189e+000	8.761155e-001	8.953272e-001	1.021773e+000	1.123177e+000	9.875791e-001	8.974653e-001	8.823526e-001	1.109904e+000	8.877051e-001	9.542951e-001	9.207337e-001	8.603624e-001	1.291518e+000	8.542285e-001	1.043130e+000	1.016498e+000	8.428202e-001	8.926614e-001	9.004916e-001	9.052547e-001	8.664603e-001	8.992927e-001	1.010584e+000	8.859973e-001	1.126375e+000	1.016897e+000	9.908091e-001	1.050694e+000	7.890737e-001	9.920554e-001	7.386428e-001	1.070958e+000	1.058635e+000	6.483189e-001	6.216251e-001	1.103820e+000	1.076786e+000	1.065487e+000	1.099508e+000	1.062525e+000	6.900698e-001	6.535903e-001	6.973415e-001	8.004230e-001	8.991920e-001	8.501801e-001	1.087129e+000	7.573669e-001	8.909568e-001	1.082315e+000	1.077384e+000	1.082199e+000	8.429003e-001	1.182595e+000	1.107806e+000	1.091803e+000	1.167320e+000	1.249626e+000	1.167642e+000	1.339366e+000	1.341067e+000	1.009475e+000	1.194488e+000	8.820627e-001	1.141642e+000	1.126754e+000	6.280202e-001	9.054010e-001	1.098155e+000	9.862973e-001	9.877579e-001	1.119217e+000	1.323334e+000	9.043189e-001	6.311035e-001	9.372756e-001	6.705467e-001	9.708627e-001	9.997766e-001	8.736252e-001	1.018026e+000	1.021777e+000	1.009917e+000	9.563897e-001	1.009961e+000	1.029854e+000	1.083438e+000	8.451105e-001	8.837443e-001	8.820067e-001	1.133903e+000	9.058902e-001	9.062501e-001	9.063193e-001	9.808527e-001	9.013585e-001	9.030433e-001	8.910563e-001	9.184537e-001	1.018640e+000	1.013850e+000	8.435889e-001	8.551626e-001	9.048645e-001	9.030535e-001	1.047561e+000	1.066222e+000	8.896456e-001	8.865340e-001	8.509014e-001	8.475342e-001	9.042996e-001	9.036827e-001	9.041553e-001	8.921413e-001	1.081103e+000	8.941011e-001	8.968581e-001	8.442215e-001	8.467095e-001	8.586168e-001	8.630590e-001	8.801996e-001	8.840904e-001	8.675030e-001	1.337061e+000	1.213264e+000	9.111732e-001	1.057473e+000	7.847727e-001	6.049012e-001	6.193108e-001	6.216364e-001	1.071654e+000	1.092119e+000	1.096893e+000	6.232452e-001	6.244322e-001	6.350675e-001	1.092255e+000	1.105135e+000	8.556582e-001	8.725292e-001	6.832304e-001	6.766905e-001	7.477301e-001	7.677254e-001	7.782887e-001	1.021813e+000	1.001447e+000	9.982251e-001	1.015639e+000	1.043276e+000	1.087321e+000	1.064647e+000	1.057832e+000	1.035908e+000	1.028666e+000	1.010115e+000	1.005393e+000	9.956594e-001	9.936316e-001	9.897755e-001	9.890499e-001	1.001821e+000	9.929054e-001	9.890597e-001	9.892549e-001	7.049026e-001	7.129642e-001	7.213132e-001	7.299532e-001	1.050630e+000	9.336418e-001	9.587376e-001	8.937720e-001	9.057472e-001	9.061765e-001	9.058324e-001	1.209471e+000	9.864403e-001	8.126470e-001	8.258888e-001	6.589810e-001	6.646350e-001	6.390670e-001	6.435026e-001	1.103954e+000	1.100973e+000	9.023397e-001	9.015326e-001	9.356685e-001	1.255837e+000	8.718479e-001	1.300092e+000	9.022465e-001	8.815644e-001	8.930001e-001	9.075526e-001	1.019046e+000	1.069792e+000	1.065816e+000	1.090487e+000	1.198613e+000	1.078050e+000	1.123137e+000	1.144833e+000	1.132144e+000	1.172978e+000	1.023143e+000	1.317192e+000	8.705763e-001	1.018989e+000	1.109635e+000	9.920896e-001	1.151868e+000	1.163713e+000	8.975779e-001	1.239040e+000	8.953154e-001	1.053931e+000	9.803491e-001	1.125155e+000	8.920181e-001	9.663664e-001	8.995827e-001	1.118051e+000	1.088419e+000	1.070344e+000	6.739865e-001	1.097533e+000	9.919686e-001	1.088705e+000	6.106265e-001	6.838255e-001	6.594590e-001	7.571071e-001	8.681216e-001	1.136068e+000	1.268063e+000	1.262650e+000	1.057388e+000	1.295366e+000	1.031298e+000	8.773637e-001	1.334142e+000	8.504850e-001	9.072080e-001	9.959132e-001	1.125857e+000	1.047165e+000	1.021148e+000	9.933268e-001	1.066103e+000	1.095079e+000	1.076845e+000	1.071622e+000	6.651757e-001	6.772751e-001	7.051252e-001	8.115276e-001	9.025339e-001	9.012150e-001	8.577215e-001	1.090910e+000	7.665170e-001	1.076907e+000	1.099366e+000	1.162106e+000	1.233735e+000	1.202411e+000	1.319252e+000	9.716974e-001	1.165524e+000	1.156377e+000	1.044767e+000	1.100009e+000	9.875607e-001	9.064453e-001	6.364544e-001	9.363239e-001	9.515113e-001	9.928539e-001	1.003417e+000	8.945901e-001	8.853017e-001	1.011408e+000	1.016673e+000	1.016796e+000	1.021640e+000	1.088476e+000	8.895696e-001	8.900295e-001	1.124922e+000	9.077315e-001	9.079942e-001	9.040248e-001	9.053978e-001	9.509966e-001	1.017440e+000	1.016009e+000	8.535357e-001	8.516521e-001	9.071516e-001	9.066970e-001	1.059926e+000	1.074830e+000	8.929176e-001	8.909257e-001	8.648566e-001	8.599152e-001	8.560962e-001	9.061795e-001	9.056497e-001	9.335962e-001	9.185653e-001	9.055894e-001	8.949797e-001	8.976915e-001	9.001168e-001	8.506646e-001	8.520503e-001	8.545197e-001	8.615165e-001	8.655212e-001	8.852919e-001	8.887604e-001	8.696503e-001	9.243956e-001	6.155073e-001	6.251337e-001	1.084111e+000	6.279150e-001	6.304916e-001	6.324863e-001	6.403131e-001	1.090295e+000	8.853493e-001	9.041406e-001	6.905516e-001	6.977735e-001	7.766557e-001	7.880673e-001	7.997958e-001	1.002654e+000	1.086244e+000	1.081672e+000	1.066001e+000	1.060024e+000	1.053800e+000	1.040341e+000	1.033697e+000	1.027264e+000	1.015643e+000	1.010666e+000	1.006359e+000	9.996181e-001	9.970686e-001	9.950322e-001	9.908135e-001	1.004762e+000	9.266106e-001	9.902983e-001	9.906751e-001	9.898938e-001	7.128582e-001	7.207534e-001	7.293387e-001	7.383547e-001	7.478047e-001	9.463033e-001	9.706754e-001	8.991992e-001	9.092225e-001	9.219044e-001	9.080206e-001	9.078492e-001	9.975953e-001	1.026323e+000	8.239644e-001	8.375635e-001	8.522460e-001	6.711302e-001	6.448688e-001	6.494867e-001	6.542702e-001	1.097898e+000	1.096522e+000	1.093892e+000	9.050467e-001	9.043813e-001	9.035486e-001	8.736968e-001	8.777142e-001	1.276828e+000	8.811398e-001	1.094377e+000	1.071856e+000	9.093564e-001	1.296102e+000	1.138432e+000	1.018036e+000	1.018982e+000	9.852362e-001	1.078602e+000	6.188104e-001	1.247382e+000	1.092445e+000	1.157044e+000	1.087647e+000	1.085864e+000	1.242779e+000	9.925055e-001	1.217091e+000	1.149006e+000	1.167350e+000	9.043642e-001	8.592732e-001	1.034499e+000	9.053192e-001	8.885290e-001	9.087157e-001	8.871846e-001	1.071162e+000	1.006138e+000	1.090273e+000	1.091494e+000	1.020589e+000	7.778055e-001	6.998980e-001	1.100994e+000	8.977891e-001	9.768075e-001	1.110623e+000	1.073372e+000	1.123468e+000	1.056051e+000	1.062024e+000	9.020379e-001	1.190221e+000	9.010780e-001	8.985454e-001	1.092586e+000	1.109218e+000	1.124617e+000	1.043872e+000	6.398631e-001	6.792733e-001	1.272340e+000	1.123498e+000	9.941521e-001	1.071615e+000	6.733048e-001	6.860012e-001	6.925597e-001	9.047241e-001	9.040630e-001	1.074908e+000	1.154733e+000	1.186632e+000	1.221633e+000	1.297095e+000	1.008652e+000	1.043993e+000	1.091467e+000	9.953216e-001	9.510930e-001	9.641335e-001	9.882120e-001	9.980602e-001	9.070369e-001	8.971320e-001	1.006011e+000	1.012033e+000	1.015937e+000	1.026061e+000	1.033642e+000	8.965924e-001	9.008408e-001	1.116678e+000	9.093696e-001	9.098045e-001	9.067125e-001	9.078605e-001	1.019704e+000	1.021614e+000	8.629360e-001	8.602600e-001	9.093699e-001	1.068506e+000	1.080562e+000	8.979394e-001	8.971665e-001	8.747302e-001	8.695277e-001	8.658413e-001	9.086069e-001	9.085429e-001	9.656308e-001	9.481002e-001	9.321077e-001	9.183920e-001	8.963517e-001	8.989902e-001	9.013287e-001	9.034464e-001	8.595286e-001	8.608468e-001	8.629522e-001	8.658634e-001	8.691782e-001	8.935421e-001	8.904249e-001	8.728439e-001	6.207481e-001	1.079247e+000	1.083788e+000	6.346117e-001	6.358195e-001	6.405840e-001	6.431652e-001	6.474971e-001	9.167747e-001	9.373295e-001	7.070407e-001	7.150074e-001	7.877175e-001	7.984971e-001	8.108693e-001	8.236521e-001	1.084171e+000	1.080330e+000	1.076346e+000	1.066787e+000	1.061437e+000	1.056150e+000	1.049424e+000	1.038259e+000	1.031609e+000	1.025939e+000	1.015310e+000	1.011016e+000	1.006712e+000	1.003519e+000	1.000240e+000	9.979926e-001	9.956694e-001	7.974091e-001	9.895621e-001	9.913144e-001	9.903792e-001	9.896575e-001	9.886025e-001	7.225949e-001	7.308307e-001	7.388023e-001	7.478474e-001	7.572541e-001	7.673870e-001	9.586568e-001	9.813421e-001	9.140927e-001	9.255008e-001	9.378095e-001	9.099731e-001	9.097084e-001	9.099153e-001	1.007004e+000	1.034254e+000	1.062181e+000	8.364019e-001	8.497981e-001	8.647475e-001	8.807192e-001	6.518851e-001	6.571754e-001	6.622573e-001	6.674074e-001	1.087260e+000	1.091219e+000	1.089851e+000	9.076736e-001	9.075412e-001	9.064876e-001	9.061674e-001	8.764762e-001	8.801726e-001	8.836939e-001	1.095476e+000	1.091570e+000	1.053976e+000	1.141293e+000	1.123583e+000	9.044562e-001	8.922391e-001	1.151427e+000	1.074864e+000	1.206520e+000	1.019423e+000	8.689054e-001	8.010029e-001	1.121040e+000	1.202410e+000	1.270596e+000	1.313531e+000	1.312849e+000	1.304145e+000	1.229392e+000	1.118484e+000	6.891031e-001	1.064294e+000	1.101602e+000	1.021696e+000	9.145699e-001	9.083363e-001	1.083939e+000	1.081886e+000	1.085622e+000	9.434553e-001	6.629982e-001	9.932397e-001	1.016967e+000	6.287046e-001	9.117613e-001	6.809941e-001	1.079070e+000	9.002019e-001	1.129128e+000	1.074360e+000	1.305782e+000	1.161365e+000	1.152226e+000	1.019135e+000	9.982780e-001	1.254005e+000	1.093235e+000	1.179430e+000	1.084101e+000	1.225322e+000	1.144942e+000	1.152838e+000	1.068913e+000	8.950180e-001	8.925753e-001	1.075703e+000	1.013659e+000	1.085482e+000	1.093410e+000	9.064761e-001	1.249991e+000	6.940748e-001	7.030179e-001	7.085012e-001	9.082878e-001	1.148321e+000	1.175788e+000	1.272421e+000	1.044135e+000	9.644278e-001	9.742384e-001	9.849960e-001	9.944161e-001	9.092461e-001	9.204382e-001	1.002240e+000	1.008711e+000	1.013110e+000	1.017133e+000	1.035807e+000	1.044234e+000	9.057481e-001	1.108686e+000	9.108422e-001	9.117038e-001	9.091084e-001	9.103391e-001	1.024925e+000	1.029268e+000	8.722499e-001	8.683001e-001	1.074647e+000	1.084476e+000	9.043096e-001	8.851426e-001	8.784823e-001	8.766599e-001	9.112750e-001	9.793333e-001	9.614898e-001	9.453517e-001	9.324811e-001	8.981253e-001	9.002468e-001	9.028591e-001	9.045841e-001	9.067451e-001	8.676551e-001	8.697474e-001	8.704264e-001	8.738075e-001	8.759696e-001	1.076739e+000	1.079327e+000	1.081952e+000	6.310873e-001	6.434524e-001	6.459705e-001	6.516090e-001	6.547974e-001	9.293857e-001	9.497779e-001	7.182094e-001	7.241830e-001	8.084158e-001	8.221308e-001	8.361055e-001	1.077916e+000	1.075236e+000	1.070571e+000	1.066950e+000	1.061637e+000	1.057414e+000	1.051400e+000	1.043315e+000	1.035535e+000	1.026580e+000	1.008582e+000	1.001886e+000	9.970349e-001	9.887536e-001	9.917942e-001	7.344863e-001	7.405567e-001	7.511854e-001	7.573701e-001	7.688156e-001	7.788464e-001	7.896162e-001	9.708045e-001	9.920987e-001	9.290734e-001	9.392891e-001	9.518752e-001	9.119951e-001	9.118399e-001	1.015250e+000	1.041171e+000	1.066674e+000	8.497960e-001	8.634291e-001	8.779356e-001	8.947407e-001	9.117961e-001	6.604351e-001	6.638583e-001	6.708630e-001	6.768079e-001	1.085196e+000	1.082826e+000	9.105429e-001	9.096187e-001	8.798874e-001	8.825455e-001	8.863943e-001	8.890427e-001	1.144704e+000	1.118148e+000	1.145409e+000	1.280073e+000	1.159163e+000	1.070089e+000	1.079134e+000	1.229957e+000	1.079148e+000	1.120823e+000	1.087056e+000	1.251191e+000	1.029091e+000	1.121225e+000	6.940995e-001	1.142313e+000	1.141762e+000	1.208785e+000	1.097052e+000	1.061332e+000	9.141710e-001	1.076743e+000	8.983503e-001	1.026618e+000	1.020872e+000	9.130994e-001	9.036655e-001	8.768465e-001	1.212296e+000	9.112395e-001	9.229756e-001	9.133578e-001	8.277432e-001	1.075707e+000	1.076252e+000	1.248734e+000	1.117625e+000	1.052752e+000	1.135006e+000	1.075607e+000	1.309516e+000	1.232985e+000	1.094767e+000	9.105551e-001	6.464810e-001	6.357214e-001	1.082773e+000	1.145198e+000	1.095957e+000	1.282323e+000	1.155418e+000	1.009971e+000	1.192005e+000	1.169213e+000	1.003421e+000	1.051065e+000	1.080227e+000	1.079958e+000	8.114006e-001	7.078521e-001	7.232556e-001	9.104552e-001	1.165456e+000	1.188239e+000	1.074427e+000	9.785909e-001	9.951710e-001	9.332780e-001	1.008514e+000	1.016111e+000	1.044621e+000	1.101876e+000	9.128258e-001	1.031714e+000	1.037447e+000	8.793968e-001	1.078724e+000	9.126185e-001	9.186984e-001	8.926683e-001	8.863304e-001	9.140612e-001	9.918471e-001	9.734327e-001	9.569299e-001	9.477158e-001	9.030554e-001	9.069624e-001	9.098538e-001	8.777239e-001	8.816413e-001	1.076612e+000	1.077909e+000	6.561058e-001	6.654573e-001	9.607453e-001	7.398277e-001	8.480609e-001	1.031333e+000	1.070831e+000	1.063375e+000	1.054944e+000	1.046515e+000	1.039088e+000	1.022555e+000	1.013960e+000	1.006426e+000	1.000533e+000	9.961580e-001	9.905198e-001	9.863862e-001	1.001202e+000	7.571840e-001	7.747440e-001	7.917694e-001	7.996664e-001	8.133207e-001	9.822042e-001	1.002408e+000	9.309394e-001	9.469235e-001	9.644659e-001	9.139716e-001	9.141533e-001	1.022972e+000	1.046364e+000	1.070283e+000	1.093458e+000	8.636426e-001	8.776276e-001	8.917992e-001	9.079287e-001	9.275734e-001	9.407226e-001	6.750445e-001	6.854410e-001	1.080890e+000	1.079064e+000	9.136711e-001	9.123755e-001	9.114424e-001	8.872125e-001	8.930048e-001	1.086860e+000	1.144712e+000	1.140142e+000	1.102033e+000	9.774347e-001	1.081243e+000	1.139449e+000	1.115729e+000	1.159820e+000	1.098170e+000	1.127045e+000	1.107447e+000	1.155951e+000	1.228380e+000	1.231179e+000	1.075176e+000	9.187092e-001	7.029893e-001	1.092580e+000	1.013704e+000	1.056863e+000	9.627795e-001	1.135600e+000	1.139621e+000	9.129845e-001	1.032782e+000	9.160866e-001	9.166460e-001	1.066702e+000	1.074164e+000	1.037616e+000	1.021415e+000	1.135930e+000	1.076533e+000	1.078349e+000	1.075911e+000	7.304559e-001	1.005923e+000	9.156239e-001	9.447192e-001	1.114862e+000	1.121815e+000	1.288085e+000	1.059153e+000	1.075483e+000	1.152998e+000	1.081577e+000	1.211728e+000	1.118587e+000	9.165418e-001	1.214336e+000	9.374672e-001	9.249030e-001	1.075476e+000	1.259374e+000	1.051843e+000	1.088641e+000	9.162705e-001	1.259020e+000	1.154596e+000	9.592183e-001	1.196918e+000	1.179035e+000	7.