# vtk DataFile Version 3.0
vtk output
ASCII
DATASET UNSTRUCTURED_GRID
POINTS 5233 float
9.997500e-001	-3.633101e-005	0.0	9.990000e-001	-1.453831e-004	0.0	9.977600e-001	-3.265313e-004	0.0	9.960200e-001	-5.846802e-004	0.0	9.937800e-001	-9.282656e-004	0.0	9.910500e-001	-1.370570e-003	0.0	9.878400e-001	-1.930008e-003	0.0	9.841300e-001	-2.631421e-003	0.0	9.799500e-001	-3.484055e-003	0.0	9.752800e-001	-4.492472e-003	0.0	9.701500e-001	-5.631691e-003	0.0	9.645400e-001	-6.869885e-003	0.0	9.584700e-001	-8.155982e-003	0.0	9.519400e-001	-9.442954e-003	0.0	9.449600e-001	-1.068996e-002	0.0	9.375400e-001	-1.186885e-002	0.0	9.296900e-001	-1.296405e-002	0.0	9.214000e-001	-1.397256e-002	0.0	9.127000e-001	-1.489450e-002	0.0	9.035800e-001	-1.574206e-002	0.0	8.940600e-001	-1.653138e-002	0.0	8.841500e-001	-1.728609e-002	0.0	8.738500e-001	-1.803464e-002	0.0	8.631800e-001	-1.880452e-002	0.0	8.521600e-001	-1.961960e-002	0.0	8.407700e-001	-2.049951e-002	0.0	8.290500e-001	-2.144983e-002	0.0	8.170100e-001	-2.246830e-002	0.0	8.046400e-001	-2.354557e-002	0.0	7.919700e-001	-2.466227e-002	0.0	7.790100e-001	-2.579689e-002	0.0	7.657800e-001	-2.692604e-002	0.0	7.522800e-001	-2.802920e-002	0.0	7.385200e-001	-2.908768e-002	0.0	7.245300e-001	-3.008503e-002	0.0	7.103200e-001	-3.101037e-002	0.0	6.958900e-001	-3.185719e-002	0.0	6.812700e-001	-3.262064e-002	0.0	6.664700e-001	-3.330017e-002	0.0	6.515000e-001	-3.389765e-002	0.0	6.363800e-001	-3.441663e-002	0.0	6.211300e-001	-3.486253e-002	0.0	6.057600e-001	-3.524241e-002	0.0	5.902800e-001	-3.556435e-002	0.0	5.747100e-001	-3.583695e-002	0.0	5.590600e-001	-3.606951e-002	0.0	5.433600e-001	-3.627122e-002	0.0	5.276100e-001	-3.645152e-002	0.0	5.118400e-001	-3.661905e-002	0.0	4.960500e-001	-3.678204e-002	0.0	4.802700e-001	-3.694743e-002	0.0	4.645100e-001	-3.712117e-002	0.0	4.487800e-001	-3.730792e-002	0.0	4.331100e-001	-3.751061e-002	0.0	4.175000e-001	-3.773114e-002	0.0	4.019700e-001	-3.796967e-002	0.0	3.865400e-001	-3.822497e-002	0.0	3.712300e-001	-3.849449e-002	0.0	3.560400e-001	-3.877488e-002	0.0	3.409900e-001	-3.906146e-002	0.0	3.261100e-001	-3.934847e-002	0.0	3.114000e-001	-3.963006e-002	0.0	2.968700e-001	-3.989967e-002	0.0	2.825500e-001	-4.015005e-002	0.0	2.684500e-001	-4.037412e-002	0.0	2.545700e-001	-4.056488e-002	0.0	2.409400e-001	-4.071495e-002	0.0	2.275700e-001	-4.081748e-002	0.0	2.144700e-001	-4.086585e-002	0.0	2.016600e-001	-4.085379e-002	0.0	1.891400e-001	-4.077546e-002	0.0	1.769300e-001	-4.062549e-002	0.0	1.650400e-001	-4.039899e-002	0.0	1.534900e-001	-4.009187e-002	0.0	1.422900e-001	-3.970048e-002	0.0	1.314400e-001	-3.922119e-002	0.0	1.209500e-001	-3.865109e-002	0.0	1.108500e-001	-3.798912e-002	0.0	1.011300e-001	-3.723230e-002	0.0	9.181000e-002	-3.638004e-002	0.0	8.290000e-002	-3.543157e-002	0.0	7.440000e-002	-3.438526e-002	0.0	6.633000e-002	-3.324220e-002	0.0	5.869000e-002	-3.200116e-002	0.0	5.149000e-002	-3.066245e-002	0.0	4.474000e-002	-2.922676e-002	0.0	3.844000e-002	-2.769267e-002	0.0	3.260000e-002	-2.606085e-002	0.0	2.723000e-002	-2.433257e-002	0.0	2.232000e-002	-2.250191e-002	0.0	1.790000e-002	-2.057784e-002	0.0	1.395000e-002	-1.854893e-002	0.0	1.049000e-002	-1.642142e-002	0.0	7.520000e-003	-1.419264e-002	0.0	5.040000e-003	-1.185872e-002	0.0	3.050000e-003	-9.413549e-003	0.0	1.560000e-003	-6.866323e-003	0.0	5.600000e-004	-4.191919e-003	0.0	6.000000e-005	-1.393362e-003	0.0	0.000000e+000	0.000000e+000	0.0	6.000000e-005	1.325967e-003	0.0	5.600000e-004	3.950984e-003	0.0	1.560000e-003	6.488578e-003	0.0	3.050000e-003	8.957981e-003	0.0	5.040000e-003	1.138963e-002	0.0	7.520000e-003	1.377518e-002	0.0	1.049000e-002	1.611887e-002	0.0	1.395000e-002	1.842178e-002	0.0	1.790000e-002	2.068337e-002	0.0	2.232000e-002	2.289281e-002	0.0	2.723000e-002	2.505954e-002	0.0	3.260000e-002	2.716941e-002	0.0	3.844000e-002	2.922608e-002	0.0	4.474000e-002	3.122484e-002	0.0	5.149000e-002	3.316164e-002	0.0	5.869000e-002	3.503541e-002	0.0	6.633000e-002	3.684228e-002	0.0	7.440000e-002	3.857874e-002	0.0	8.290000e-002	4.024346e-002	0.0	9.181000e-002	4.183126e-002	0.0	1.011300e-001	4.334097e-002	0.0	1.108500e-001	4.476963e-002	0.0	1.209500e-001	4.611327e-002	0.0	1.314400e-001	4.737209e-002	0.0	1.422900e-001	4.854153e-002	0.0	1.534900e-001	4.962013e-002	0.0	1.650400e-001	5.060758e-002	0.0	1.769300e-001	5.150288e-002	0.0	1.891400e-001	5.230496e-002	0.0	2.016600e-001	5.301420e-002	0.0	2.144700e-001	5.363117e-002	0.0	2.275700e-001	5.415815e-002	0.0	2.409400e-001	5.459723e-002	0.0	2.545700e-001	5.495172e-002	0.0	2.684500e-001	5.522566e-002	0.0	2.825500e-001	5.542352e-002	0.0	2.968700e-001	5.555099e-002	0.0	3.114000e-001	5.561404e-002	0.0	3.261100e-001	5.561906e-002	0.0	3.409900e-001	5.557285e-002	0.0	3.560400e-001	5.548208e-002	0.0	3.712300e-001	5.535345e-002	0.0	3.865400e-001	5.519321e-002	0.0	4.019700e-001	5.500670e-002	0.0	4.175000e-001	5.479849e-002	0.0	4.331100e-001	5.457190e-002	0.0	4.487800e-001	5.432881e-002	0.0	4.645100e-001	5.406903e-002	0.0	4.802700e-001	5.379100e-002	0.0	4.960500e-001	5.349084e-002	0.0	5.118400e-001	5.316264e-002	0.0	5.276100e-001	5.279903e-002	0.0	5.433600e-001	5.239024e-002	0.0	5.590600e-001	5.192590e-002	0.0	5.747100e-001	5.139384e-002	0.0	5.902800e-001	5.078252e-002	0.0	6.057600e-001	5.008015e-002	0.0	6.211300e-001	4.927646e-002	0.0	6.363800e-001	4.836265e-002	0.0	6.515000e-001	4.733242e-002	0.0	6.664700e-001	4.618341e-002	0.0	6.812700e-001	4.491720e-002	0.0	6.958900e-001	4.353845e-002	0.0	7.103200e-001	4.205539e-002	0.0	7.245300e-001	4.048160e-002	0.0	7.385200e-001	3.882976e-002	0.0	7.522800e-001	3.711464e-002	0.0	7.657800e-001	3.535359e-002	0.0	7.790100e-001	3.356049e-002	0.0	7.919700e-001	3.174596e-002	0.0	8.046400e-001	2.992157e-002	0.0	8.170100e-001	2.809642e-002	0.0	8.290500e-001	2.628310e-002	0.0	8.407700e-001	2.449082e-002	0.0	8.521600e-001	2.273665e-002	0.0	8.631800e-001	2.104906e-002	0.0	8.738500e-001	1.945446e-002	0.0	8.841500e-001	1.799052e-002	0.0	8.940600e-001	1.669441e-002	0.0	9.035800e-001	1.559133e-002	0.0	9.127000e-001	1.468743e-002	0.0	9.214000e-001	1.395801e-002	0.0	9.296900e-001	1.333841e-002	0.0	9.375400e-001	1.273430e-002	0.0	9.449600e-001	1.203359e-002	0.0	9.519400e-001	1.114049e-002	0.0	9.584700e-001	1.000672e-002	0.0	9.645400e-001	8.653044e-003	0.0	9.701500e-001	7.164569e-003	0.0	9.752800e-001	5.671506e-003	0.0	9.799500e-001	4.291854e-003	0.0	9.841300e-001	3.121481e-003	0.0	9.878400e-001	2.188740e-003	0.0	9.910500e-001	1.487236e-003	0.0	9.937800e-001	9.712139e-004	0.0	9.960200e-001	5.967076e-004	0.0	9.977600e-001	3.287759e-004	0.0	9.990000e-001	1.455887e-004	0.0	9.997500e-001	3.633428e-005	0.0	1.000000e+000	0.000000e+000	0.0	1.984229e+001	2.506660e+000	0.0	1.937166e+001	4.973800e+000	0.0	1.859553e+001	7.362490e+000	0.0	1.752613e+001	9.635070e+000	0.0	1.618034e+001	1.175571e+001	0.0	1.457937e+001	1.369094e+001	0.0	1.274848e+001	1.541027e+001	0.0	1.071654e+001	1.688656e+001	0.0	8.515590e+000	1.809654e+001	0.0	6.180340e+000	1.902113e+001	0.0	3.747630e+000	1.964575e+001	0.0	1.255810e+000	1.996053e+001	0.0	-1.255810e+000	1.996053e+001	0.0	-3.747630e+000	1.964574e+001	0.0	-6.180340e+000	1.902113e+001	0.0	-8.515590e+000	1.809654e+001	0.0	-1.071654e+001	1.688656e+001	0.0	-1.274848e+001	1.541026e+001	0.0	-1.457937e+001	1.369094e+001	0.0	-1.618034e+001	1.175570e+001	0.0	-1.752613e+001	9.635070e+000	0.0	-1.859553e+001	7.362490e+000	0.0	-1.937166e+001	4.973800e+000	0.0	-1.984229e+001	2.506660e+000	0.0	-2.000000e+001	0.000000e+000	0.0	-1.984229e+001	-2.506670e+000	0.0	-1.937166e+001	-4.973800e+000	0.0	-1.859553e+001	-7.362490e+000	0.0	-1.752613e+001	-9.635080e+000	0.0	-1.618034e+001	-1.175571e+001	0.0	-1.457937e+001	-1.369094e+001	0.0	-1.274848e+001	-1.541027e+001	0.0	-1.071653e+001	-1.688656e+001	0.0	-8.515580e+000	-1.809654e+001	0.0	-6.180340e+000	-1.902113e+001	0.0	-3.747620e+000	-1.964575e+001	0.0	-1.255810e+000	-1.996053e+001	0.0	1.255810e+000	-1.996053e+001	0.0	3.747630e+000	-1.964574e+001	0.0	6.180340e+000	-1.902113e+001	0.0	8.515590e+000	-1.809654e+001	0.0	1.071654e+001	-1.688656e+001	0.0	1.274848e+001	-1.541026e+001	0.0	1.457937e+001	-1.369094e+001	0.0	1.618034e+001	-1.175570e+001	0.0	1.752614e+001	-9.635070e+000	0.0	1.859553e+001	-7.362490e+000	0.0	1.937166e+001	-4.973790e+000	0.0	1.984229e+001	-2.506660e+000	0.0	2.000000e+001	0.000000e+000	0.0	6.122351e-002	-3.962684e-002	0.0	6.597348e-001	-4.719026e-002	0.0	4.256609e-001	6.911671e-002	0.0	6.898551e-001	5.737573e-002	0.0	3.792290e-001	-5.264863e-002	0.0	9.994578e-001	-7.411791e-004	0.0	9.985341e-001	-1.344689e-003	0.0	7.733932e-001	-3.847661e-002	0.0	6.894154e-001	-4.550109e-002	0.0	-1.313383e-003	6.084523e-003	0.0	7.463578e-001	-4.108330e-002	0.0	5.833430e-001	6.521904e-002	0.0	9.927637e-001	-3.694397e-003	0.0	9.898699e-001	-4.647523e-003	0.0	5.989225e-001	6.444464e-002	0.0	7.183328e-001	-4.344999e-002	0.0	-1.522392e-003	6.917426e-004	0.0	9.864901e-001	-5.724357e-003	0.0	9.826320e-001	-6.924052e-003	0.0	-1.305849e-003	-6.380963e-003	0.0	6.446507e-001	-4.790032e-002	0.0	8.240542e-001	-3.310797e-002	0.0	7.993179e-001	-3.577907e-002	0.0	3.486144e-001	6.943409e-002	0.0	8.474799e-001	-3.058681e-002	0.0	2.473877e-001	6.731058e-002	0.0	8.695435e-001	-2.821001e-002	0.0	1.007215e-002	2.041683e-002	0.0	8.901424e-001	-2.587863e-002	0.0	7.754331e-002	-4.272658e-002	0.0	9.091959e-001	-2.343263e-002	0.0	-1.825353e-003	-3.171096e-003	0.0	9.422791e-001	-1.773983e-002	0.0	9.266067e-001	-2.073455e-002	0.0	1.822625e-002	-2.551548e-002	0.0	4.257040e-001	-5.216026e-002	0.0	8.586906e-001	-2.938209e-002	0.0	9.561557e-001	-1.452006e-002	0.0	9.782885e-001	-8.269635e-003	0.0	9.681751e-001	-1.126543e-002	0.0	1.588569e-001	-5.093421e-002	0.0	8.998702e-001	-2.468040e-002	0.0	7.600094e-001	-3.980167e-002	0.0	9.971048e-001	-2.094178e-003	0.0	5.986164e-001	-4.953978e-002	0.0	4.413602e-001	-5.199340e-002	0.0	5.359843e-001	-5.084584e-002	0.0	4.728418e-001	-5.165267e-002	0.0	5.044176e-001	-5.128261e-002	0.0	4.886172e-001	-5.147211e-002	0.0	1.255350e-001	-4.861807e-002	0.0	2.819075e-002	-3.007818e-002	0.0	3.946264e-001	-5.248949e-002	0.0	4.665267e-002	-3.612
[...]
POINT_DATA 5233

SCALARS Density float 1
LOOKUP_TABLE default
1.201358e+000	1.178997e+000	1.167359e+000	1.158732e+000	1.151959e+000	1.145782e+000	1.138391e+000	1.128640e+000	1.115472e+000	1.098622e+000	1.078547e+000	1.056408e+000	1.033891e+000	1.013114e+000	9.958720e-001	9.832140e-001	9.754608e-001	9.723263e-001	9.731671e-001	9.770025e-001	9.826988e-001	9.890505e-001	9.949334e-001	9.993940e-001	1.001833e+000	1.001963e+000	9.997810e-001	9.955020e-001	9.895186e-001	9.823192e-001	9.744302e-001	9.663747e-001	9.586161e-001	9.516150e-001	9.456937e-001	9.411149e-001	9.379728e-001	9.362690e-001	9.359111e-001	9.367534e-001	9.385989e-001	9.412549e-001	9.445027e-001	9.481552e-001	9.520146e-001	9.559289e-001	9.597381e-001	9.633325e-001	9.665978e-001	9.694637e-001	9.718483e-001	9.737107e-001	9.750032e-001	9.757077e-001	9.758112e-001	9.753131e-001	9.742179e-001	9.725386e-001	9.702968e-001	9.675113e-001	9.642184e-001	9.604347e-001	9.562094e-001	9.515578e-001	9.465374e-001	9.411648e-001	9.355109e-001	9.296007e-001	9.235212e-001	9.173037e-001	9.110329e-001	9.047740e-001	8.986953e-001	8.928939e-001	8.875326e-001	8.827192e-001	8.787427e-001	8.759245e-001	8.744852e-001	8.745902e-001	8.763829e-001	8.798978e-001	8.852019e-001	8.923030e-001	9.013205e-001	9.125152e-001	9.261067e-001	9.424749e-001	9.621859e-001	9.857889e-001	1.014328e+000	1.048898e+000	1.090129e+000	1.138489e+000	1.192848e+000	1.249972e+000	1.300980e+000	1.342918e+000	1.351881e+000	1.341444e+000	1.333201e+000	1.297472e+000	1.223764e+000	1.158307e+000	1.096651e+000	1.042202e+000	9.964018e-001	9.583989e-001	9.265146e-001	8.995953e-001	8.765172e-001	8.563491e-001	8.386663e-001	8.229253e-001	8.088347e-001	7.962378e-001	7.847710e-001	7.740560e-001	7.639052e-001	7.542203e-001	7.451101e-001	7.367435e-001	7.290791e-001	7.217523e-001	7.144721e-001	7.072814e-001	7.005689e-001	6.943960e-001	6.885841e-001	6.829417e-001	6.776157e-001	6.728478e-001	6.688485e-001	6.656102e-001	6.630767e-001	6.611355e-001	6.597120e-001	6.587721e-001	6.582452e-001	6.581347e-001	6.584707e-001	6.593060e-001	6.606262e-001	6.622128e-001	6.638527e-001	6.654475e-001	6.669886e-001	6.684691e-001	6.697721e-001	6.708023e-001	6.713207e-001	6.711116e-001	6.698294e-001	6.672461e-001	6.634971e-001	6.588544e-001	6.534456e-001	6.474906e-001	6.408589e-001	6.306318e-001	6.141535e-001	5.933713e-001	6.294466e-001	8.005022e-001	9.699934e-001	9.826539e-001	9.728191e-001	9.724292e-001	9.774246e-001	9.820257e-001	9.869975e-001	9.930233e-001	9.998539e-001	1.007310e+000	1.015305e+000	1.023503e+000	1.031356e+000	1.038062e+000	1.042607e+000	1.043819e+000	1.040565e+000	1.031989e+000	1.018078e+000	1.000910e+000	9.853400e-001	9.779188e-001	9.850595e-001	1.008090e+000	1.040297e+000	1.071910e+000	1.098386e+000	1.118269e+000	1.131487e+000	1.139575e+000	1.144341e+000	1.148547e+000	1.153608e+000	1.162239e+000	1.171784e+000	1.170725e+000	9.992476e-001	9.996512e-001	9.996051e-001	9.994263e-001	9.992649e-001	9.990711e-001	9.988460e-001	9.985711e-001	9.982773e-001	9.980702e-001	9.979513e-001	9.980404e-001	9.982866e-001	9.987781e-001	9.991975e-001	9.995532e-001	9.997657e-001	9.999095e-001	1.000013e+000	1.000067e+000	1.000106e+000	1.000127e+000	1.000147e+000	1.000164e+000	1.000177e+000	1.000193e+000	1.000218e+000	1.000249e+000	1.000290e+000	1.000355e+000	1.000428e+000	1.000554e+000	1.000682e+000	1.000909e+000	1.001135e+000	1.001434e+000	1.001768e+000	1.001937e+000	1.002013e+000	1.001883e+000	1.001720e+000	1.001468e+000	1.001235e+000	1.001005e+000	1.000796e+000	1.000565e+000	1.000391e+000	1.000324e+000	9.997259e-001	9.989667e-001	9.039194e-001	9.399526e-001	6.652208e-001	6.057086e-001	9.732277e-001	1.180605e+000	1.170971e+000	9.721490e-001	9.409957e-001	1.279407e+000	9.581178e-001	6.667475e-001	1.144626e+000	1.137099e+000	6.624555e-001	9.471158e-001	1.337204e+000	1.128315e+000	1.117405e+000	1.323969e+000	9.410569e-001	9.966349e-001	9.861440e-001	6.603912e-001	1.000662e+000	6.730775e-001	9.972480e-001	1.019252e+000	9.886524e-001	8.905097e-001	9.809488e-001	1.346263e+000	9.984041e-001	9.821279e-001	1.031988e+000	9.754734e-001	9.998301e-001	1.030075e+000	1.103808e+000	1.069074e+000	9.013909e-001	9.841924e-001	9.649392e-001	1.160147e+000	9.487383e-001	9.751148e-001	9.625254e-001	9.727710e-001	9.684373e-001	9.708349e-001	8.882783e-001	9.783783e-001	9.745272e-001	9.256445e-001	9.752777e-001	9.629119e-001	9.690483e-001	9.576338e-001	9.550330e-001	9.881804e-001	8.964168e-001	9.181451e-001	8.866738e-001	8.843444e-001	9.556526e-001	9.067485e-001	9.456404e-001	9.932969e-001	1.002922e+000	1.152010e+000	1.149681e+000	9.474850e-001	9.799468e-001	1.012632e+000	1.087524e+000	1.225776e+000	9.995796e-001	9.405380e-001	9.591615e-001	9.520820e-001	9.793668e-001	8.856243e-001	9.295945e-001	9.521316e-001	9.398802e-001	9.136630e-001	1.197359e+000	1.066049e+000	9.713936e-001	9.123966e-001	1.212909e+000	9.351657e-001	8.846545e-001	9.591697e-001	9.456799e-001	9.742087e-001	9.433968e-001	1.322195e+000	1.290124e+000	6.735550e-001	1.343141e+000	8.941806e-001	8.212736e-001	8.533490e-001	7.442936e-001	6.636975e-001	1.147838e+000	6.735634e-001	6.700303e-001	1.061991e+000	1.012801e+000	1.038597e+000	6.715412e-001	6.668044e-001	6.611712e-001	1.025609e+000	1.039415e+000	7.837675e-001	1.085344e+000	9.984364e-001	1.002616e+000	7.625514e-001	8.077103e-001	6.646098e-001	6.696339e-001	7.062328e-001	6.616134e-001	6.684225e-001	6.622944e-001	7.206120e-001	7.361985e-001	6.513773e-001	6.935878e-001	6.821463e-001	6.313675e-001	6.701267e-001	9.827074e-001	9.463965e-001	9.889876e-001	9.803180e-001	1.013889e+000	1.000247e+000	1.040626e+000	1.028039e+000	9.957943e-001	1.034405e+000	1.036158e+000	1.021082e+000	1.034117e+000	9.941735e-001	1.006859e+000	9.761574e-001	9.847852e-001	6.815761e-001	1.000759e+000	6.445621e-001	6.098880e-001	6.724287e-001	6.573645e-001	6.876758e-001	6.772694e-001	7.131857e-001	6.997864e-001	8.363672e-001	7.283865e-001	9.806289e-001	8.725113e-001	9.239111e-001	1.114347e+000	1.049420e+000	9.920392e-001	9.662099e-001	9.656475e-001	1.169869e+000	9.189107e-001	1.063728e+000	7.728577e-001	7.953080e-001	6.668301e-001	7.530110e-001	1.104472e+000	1.118851e+000	6.628846e-001	1.129048e+000	1.136269e+000	6.607960e-001	6.604993e-001	1.014071e+000	1.180857e+000	1.155534e+000	1.163558e+000	9.430172e-001	9.401867e-001	1.142075e+000	6.727789e-001	1.246114e+000	1.105485e+000	8.962312e-001	8.919896e-001	9.505186e-001	8.070662e-001	1.256761e+000	1.299400e+000	9.542341e-001	9.464894e-001	9.874690e-001	1.148266e+000	6.728113e-001	9.446855e-001	9.772831e-001	1.127566e+000	9.650880e-001	9.994122e-001	9.970777e-001	8.978768e-001	1.300386e+000	9.303536e-001	1.074386e+000	1.044528e+000	9.055628e-001	9.494572e-001	9.443383e-001	9.744461e-001	9.019806e-001	9.736867e-001	9.902672e-001	9.834454e-001	1.071790e+000	9.632595e-001	6.265908e-001	1.013039e+000	7.625458e-001	6.078086e-001	7.205417e-001	1.030814e+000	1.117956e+000	6.641073e-001	6.749329e-001	1.012165e+000	1.035100e+000	1.126726e+000	1.020615e+000	1.091885e+000	6.832340e-001	6.653515e-001	6.882440e-001	7.723847e-001	9.440002e-001	9.251789e-001	1.031394e+000	7.361057e-001	8.505433e-001	1.055111e+000	1.133805e+000	1.037611e+000	9.099970e-001	1.196766e+000	1.146633e+000	1.140076e+000	1.116083e+000	1.211323e+000	1.188976e+000	1.337894e+000	1.334496e+000	1.042830e+000	1.209576e+000	9.160263e-001	1.160318e+000	1.143676e+000	6.655058e-001	9.620523e-001	1.117881e+000	9.961609e-001	6.700581e-001	1.135972e+000	1.327254e+000	9.750109e-001	6.644478e-001	9.990116e-001	6.718510e-001	9.983810e-001	9.932486e-001	9.080042e-001	9.880628e-001	9.893302e-001	1.014076e+000	9.915246e-001	1.028399e+000	1.061360e+000	1.106358e+000	8.983774e-001	9.645677e-001	9.708578e-001	1.151612e+000	9.733924e-001	9.718718e-001	9.699121e-001	1.015449e+000	9.746334e-001	9.750762e-001	9.679238e-001	9.533859e-001	9.942387e-001	1.002509e+000	9.016094e-001	8.956029e-001	9.589800e-001	9.499572e-001	1.077767e+000	1.092947e+000	9.535509e-001	9.586775e-001	8.950885e-001	8.960983e-001	9.558621e-001	9.527952e-001	9.386265e-001	9.262166e-001	1.109551e+000	9.703072e-001	9.722407e-001	9.148961e-001	9.199742e-001	9.355084e-001	9.405020e-001	9.582074e-001	9.618512e-001	9.453439e-001	1.326001e+000	1.230609e+000	8.681262e-001	1.106535e+000	6.757321e-001	6.735241e-001	6.719075e-001	6.701609e-001	1.074459e+000	1.036048e+000	1.030463e+000	6.684460e-001	6.668643e-001	6.637193e-001	1.035492e+000	1.011378e+000	8.202707e-001	8.346802e-001	6.788653e-001	6.750410e-001	7.280691e-001	7.447434e-001	7.534753e-001	9.911499e-001	9.913293e-001	9.978364e-001	9.878055e-001	1.006860e+000	1.037875e+000	1.025383e+000	1.019279e+000	1.001011e+000	9.956075e-001	9.840034e-001	9.809994e-001	8.580273e-001	6.377468e-001	6.434769e-001	6.536839e-001	6.747435e-001	6.757067e-001	6.609007e-001	6.661813e-001	6.937500e-001	6.999110e-001	7.064850e-001	7.134503e-001	9.953558e-001	8.879027e-001	9.102238e-001	9.890360e-001	9.936874e-001	9.675975e-001	9.649413e-001	1.163848e+000	9.351774e-001	7.831336e-001	7.947150e-001	6.670139e-001	6.691713e-001	6.633603e-001	6.634406e-001	1.016203e+000	1.023475e+000	9.474808e-001	9.455548e-001	9.708801e-001	1.269387e+000	9.499169e-001	1.303738e+000	9.740482e-001	9.575654e-001	9.819600e-001	9.646112e-001	9.957530e-001	1.117707e+000	1.108600e+000	1.039328e+000	1.158633e+000	1.125761e+000	1.154127e+000	1.164075e+000	1.150936e+000	1.189675e+000	1.052414e+000	1.305840e+000	9.090785e-001	9.999836e-001	1.127400e+000	6.779306e-001	1.171184e+000	1.182116e+000	9.525713e-001	1.250734e+000	9.559062e-001	1.081106e+000	9.982073e-001	1.146793e+000	9.670169e-001	9.990709e-001	9.501577e-001	1.135707e+000	1.112997e+000	1.083985e+000	6.774827e-001	1.023170e+000	6.390807e-001	1.131423e+000	6.761574e-001	6.809060e-001	6.693224e-001	7.368445e-001	8.334111e-001	1.160168e+000	1.276099e+000	1.235315e+000	1.007949e+000	1.276084e+000	1.056620e+000	9.134311e-001	1.327693e+000	9.140976e-001	9.739029e-001	1.026646e+000	1.078080e+000	1.012511e+000	9.936358e-001	6.217454e-001	1.097479e+000	1.028676e+000	1.035321e+000	1.032486e+000	6.714387e-001	6.771743e-001	6.950957e-001	7.834266e-001	9.483946e-001	9.488407e-001	9.316685e-001	1.041671e+000	7.447940e-001	1.069046e+000	1.137873e+000	1.117391e+000	1.199342e+000	1.217376e+000	1.317887e+000	1.003434e+000	1.185404e+000	1.176278e+000	1.071074e+000	1.118699e+000	6.768204e-001	9.746130e-001	6.667700e-001	9.976346e-001	9.989196e-001	9.967317e-001	9.950479e-001	9.280562e-001	9.197358e-001	9.938965e-001	9.938990e-001	1.028558e+000	1.042180e+000	1.108870e+000	9.706884e-001	9.764194e-001	1.143049e+000	9.727555e-001	9.711966e-001	9.746955e-001	9.748789e-001	9.833601e-001	1.006899e+000	1.016557e+000	9.080480e-001	9.107700e-001	9.620143e-001	9.593099e-001	1.084880e+000	1.097503e+000	9.601988e-001	9.652722e-001	9.065654e-001	9.055841e-001	9.061438e-001	9.566501e-001	9.541024e-001	9.662407e-001	9.513238e-001	9.385575e-001	9.693963e-001	9.713944e-001	9.729429e-001	9.181599e-001	9.224933e-001	9.270669e-001	9.363647e-001	9.409373e-001	9.610768e-001	9.642158e-001	9.454440e-001	8.831001e-001	6.743146e-001	6.724592e-001	1.053517e+000	6.706386e-001	6.689636e-001	6.676328e-001	6.664159e-001	1.033519e+000	8.485466e-001	8.650951e-001	6.850730e-001	6.899162e-001	7.535235e-001	7.634000e-001	7.733923e-001	9.972701e-001	1.035971e+000	1.036601e+000	1.028339e+000	1.023457e+000	1.018103e+000	1.006955e+000	1.001638e+000	9.970373e-001	9.904198e-001	9.863813e-001	9.860754e-001	9.732481e-001	7.679151e-001	6.321270e-001	6.533717e-001	6.784238e-001	6.783540e-001	6.626755e-001	6.692462e-001	6.739945e-001	7.008438e-001	7.069419e-001	7.138575e-001	7.212467e-001	7.290992e-001	9.029446e-001	9.253415e-001	9.871164e-001	9.916185e-001	9.951667e-001	9.692930e-001	9.670732e-001	9.503524e-001	9.775919e-001	7.943703e-001	8.064826e-001	8.194758e-001	6.740736e-001	6.665423e-001	6.670168e-001	6.678631e-001	1.022626e+000	1.025473e+000	1.029675e+000	9.518957e-001	9.500671e-001	9.489022e-001	9.497165e-001	9.537993e-001	1.280304e+000	9.203184e-001	1.130031e+000	1.090170e+000	9.646388e-001	1.283193e+000	1.158083e+000	1.005689e+000	1.011868e+000	1.013813e+000	1.117251e+000	6.773242e-001	1.254414e+000	1.049201e+000	1.172919e+000	1.043837e+000	1.124063e+000	1.216762e+000	6.445137e-001	1.185875e+000	1.165692e+000	1.189001e+000	9.859306e-001	9.229642e-001	1.060053e+000	9.742948e-001	9.249698e-001	9.742098e-001	9.607512e-001	1.100660e+000	6.818162e-001	1.036168e+000	1.031931e+000	9.930660e-001	7.556000e-001	6.931417e-001	1.119383e+000	8.622313e-001	9.997519e-001	1.143391e+000	1.109750e+000	1.142505e+000	1.078513e+000	1.085566e+000	9.555099e-001	1.203162e+000	9.589703e-001	9.618699e-001	1.113768e+000	1.127388e+000	1.143223e+000	1.011670e+000	6.786956e-001	6.803627e-001	1.252490e+000	1.081778e+000	6.425950e-001	1.033076e+000	6.774123e-001	6.842144e-001	6.882193e-001	9.525609e-001	9.543397e-001	1.078400e+000	1.115571e+000	1.151137e+000	1.231719e+000	1.296034e+000	1.035841e+000	1.066241e+000	1.110605e+000	6.820845e-001	9.984735e-001	9.994741e-001	9.994239e-001	9.990247e-001	9.398910e-001	9.314553e-001	9.988678e-001	9.996166e-001	1.001805e+000	1.041363e+000	1.053721e+000	9.759788e-001	9.812653e-001	1.135091e+000	9.734093e-001	9.722126e-001	9.746579e-001	9.746383e-001	1.019907e+000	1.029817e+000	9.180332e-001	9.198258e-001	9.626443e-001	1.090079e+000	1.100859e+000	9.666962e-001	9.717725e-001	9.174166e-001	9.161754e-001	9.166511e-001	9.599659e-001	9.582008e-001	9.952344e-001	9.783954e-001	9.631447e-001	9.502627e-001	9.687105e-001	9.707074e-001	9.722831e-001	9.734973e-001	9.264208e-001	9.302647e-001	9.341018e-001	9.382344e-001	9.422365e-001	9.664118e-001	9.637018e-001	9.463409e-001	6.752997e-001	1.066180e+000	1.054210e+000	6.735393e-001	6.719148e-001	6.707055e-001	6.699446e-001	6.699376e-001	8.794741e-001	8.982408e-001	6.981021e-001	7.039902e-001	7.642468e-001	7.738835e-001	7.848081e-001	7.958930e-001	1.035114e+000	1.035637e+000	1.035113e+000	1.030139e+000	1.026200e+000	1.021878e+000	1.016245e+000	1.007262e+000	1.001627e+000	9.972719e-001	9.892788e-001	9.909928e-001	9.989173e-001	9.980141e-001	9.162994e-001	7.260923e-001	6.484936e-001	6.803156e-001	6.809745e-001	6.599337e-001	6.715890e-001	6.774233e-001	6.801996e-001	7.096905e-001	7.161989e-001	7.225916e-001	7.301593e-001	7.380291e-001	7.466649e-001	9.178790e-001	9.393705e-001	9.902013e-001	9.940519e-001	9.966611e-001	9.706649e-001	9.689225e-001	9.670841e-001	9.639354e-001	9.903803e-001	1.018289e+000	8.069466e-001	8.189374e-001	8.325264e-001	8.469102e-001	6.704179e-001	6.716098e-001	6.730415e-001	6.748013e-001	1.033601e+000	1.030820e+000	1.031796e+000	9.557222e-001	9.546769e-001	9.529102e-001	9.530738e-001	9.501959e-001	9.539899e-001	9.574404e-001	1.113717e+000	1.125712e+000	1.073883e+000	1.161979e+000	1.139520e+000	9.660614e-001	9.317080e-001	1.164983e+000	1.085055e+000	1.215035e+000	1.043483e+000	9.315057e-001	7.770734e-001	1.084460e+000	1.174218e+000	1.256171e+000	1.306305e+000	1.306461e+000	1.295538e+000	1.235309e+000	1.137562e+000	6.878565e-001	1.084277e+000	1.120041e+000	1.023784e+000	9.871113e-001	9.744963e-001	1.116802e+000	1.035786e+000	1.038355e+000	6.832706e-001	6.807373e-001	6.561305e-001	9.932142e-001	6.780933e-001	9.663395e-001	6.829375e-001	1.110253e+000	9.366026e-001	1.154501e+000	1.094327e+000	1.300428e+000	1.182741e+000	1.172801e+000	1.015429e+000	1.023927e+000	1.256859e+000	1.055172e+000	1.190488e+000	1.048021e+000	1.201084e+000	1.165155e+000	1.175201e+000	1.089290e+000	9.659322e-001	9.634893e-001	1.102690e+000	6.856634e-001	1.042025e+000	1.111985e+000	9.603465e-001	1.230404e+000	6.907067e-001	6.969384e-001	7.005613e-001	9.573032e-001	1.113922e+000	1.144242e+000	1.271818e+000	1.066415e+000	1.000055e+000	1.000776e+000	1.001843e+000	1.001886e+000	9.432136e-001	9.523495e-001	1.003366e+000	1.003832e+000	1.007306e+000	1.011257e+000	1.052289e+000	1.063122e+000	9.790134e-001	1.127326e+000	9.739414e-001	9.731748e-001	9.746212e-001	9.744539e-001	1.032426e+000	1.041746e+000	9.274294e-001	9.278919e-001	1.094215e+000	1.103481e+000	9.729718e-001	9.283073e-001	9.255642e-001	9.272516e-001	9.624649e-001	1.006241e+000	9.896456e-001	9.747062e-001	9.629730e-001	9.682370e-001	9.701409e-001	9.717574e-001	9.730345e-001	9.739408e-001	9.336298e-001	9.375053e-001	9.402473e-001	9.442702e-001	9.473593e-001	1.075171e+000	1.065342e+000	1.056046e+000	6.762316e-001	6.751309e-001	6.736945e-001	6.736774e-001	6.732306e-001	8.941010e-001	9.131317e-001	7.079544e-001	7.122785e-001	7.837284e-001	7.965148e-001	8.089977e-001	1.035689e+000	1.035034e+000	1.033245e+000	1.031110e+000	1.027567e+000	1.024155e+000	1.019213e+000	1.012654e+000	1.005978e+000	9.965752e-001	1.011043e+000	9.089034e-001	6.848629e-001	6.711620e-001	6.842013e-001	7.205707e-001	7.252045e-001	7.341480e-001	7.391427e-001	7.491471e-001	7.576815e-001	7.671045e-001	9.330166e-001	9.534691e-001	9.933483e-001	9.961982e-001	9.982731e-001	9.717647e-001	9.696477e-001	9.762487e-001	1.001906e+000	1.027717e+000	8.209904e-001	8.331338e-001	8.465813e-001	8.622843e-001	8.779204e-001	6.747465e-001	6.754727e-001	6.784473e-001	6.811056e-001	1.036515e+000	1.035871e+000	9.590895e-001	9.570918e-001	9.512142e-001	9.543003e-001	9.577499e-001	9.605659e-001	1.164291e+000	1.149147e+000	1.156948e+000	1.269761e+000	1.181708e+000	1.088612e+000	1.104136e+000	1.210986e+000	1.057708e+000	1.140539e+000	1.105503e+000	1.250614e+000	1.050342e+000	1.134847e+000	6.921268e-001	1.161889e+000	1.111436e+000	1.186384e+000	1.112715e+000	1.079700e+000	9.693057e-001	1.097060e+000	9.668129e-001	1.034472e+000	1.022965e+000	9.613792e-001	9.430509e-001	9.396400e-001	1.217158e+000	9.746199e-001	9.560929e-001	9.491043e-001	8.026957e-001	1.081263e+000	1.037201e+000	1.233585e+000	1.085507e+000	1.070547e+000	1.157515e+000	1.089226e+000	1.302935e+000	1.235277e+000	1.113274e+000	9.731649e-001	6.809283e-001	6.782886e-001	1.110446e+000	1.167926e+000	1.127828e+000	1.278174e+000	1.176363e+000	1.032878e+000	1.199147e+000	1.178584e+000	6.868591e-001	1.070474e+000	1.051514e+000	1.046291e+000	6.834875e-001	7.014855e-001	7.130005e-001	9.672203e-001	1.137396e+000	1.162816e+000	1.091992e+000	1.002648e+000	1.005522e+000	9.640939e-001	1.009538e+000	1.015926e+000	1.061161e+000	1.120629e+000	9.741985e-001	1.043261e+000	1.051849e+000	9.360423e-001	1.097196e+000	9.791360e-001	9.854055e-001	9.373529e-001	9.365866e-001	9.663634e-001	1.016277e+000	9.994846e-001	9.847239e-001	9.765922e-001	9.705522e-001	9.731479e-001	9.743960e-001	9.448353e-001	9.507215e-001	1.073158e+000	1.065239e+000	6.771046e-001	6.779722e-001	9.270377e-001	7.260989e-001	8.218479e-001	1.001150e+000	1.034480e+000	1.029767e+000	1.023141e+000	1.016171e+000	1.010076e+000	9.917886e-001	1.001760e+000	9.913673e-001	8.316875e-001	6.790251e-001	6.648143e-001	6.802315e-001	6.874720e-001	7.403913e-001	7.553462e-001	7.701772e-001	7.769479e-001	7.894600e-001	9.476503e-001	9.673785e-001	9.919482e-001	9.969980e-001	1.000473e+000	9.730652e-001	9.714869e-001	9.879368e-001	1.011495e+000	1.035879e+000	1.059985e+000	8.359531e-001	8.483608e-001	8.615186e-001	8.770634e-001	8.955548e-001	9.075238e-001	6.814069e-001	6.869008e-001	1.042044e+000	1.039939e+000	9.634017e-001	9.610336e-001	9.629264e-001	9.566683e-001	9.621161e-001	1.115870e+000	1.165279e+000	1.160342e+000	1.133981e+000	1.002464e+000	1.104898e+000	1.159607e+000	1.135376e+000	1.167661e+000	1.111530e+000	1.147062e+000	1.126668e+000	1.130926e+000	1.213196e+000	1.230477e+000	1.071707e+000	9.796092e-001	6.990381e-001	1.123202e+000	1.018032e+000	1.073828e+000	9.318543e-001	1.108802e+000	1.149342e+000	9.748432e-001	1.044143e+000	9.647880e-001	9.695050e-001	1.084198e+000	1.091973e+000	1.056316e+000	1.041593e+000	1.157323e+000	1.092065e+000	1.098381e+000	1.059068e+000	7.199134e-001	6.883577e-001	9.691826e-001	9.744339e-001	1.144902e+000	1.149250e+000	1.280947e+000	1.076172e+000	1.065038e+000	1.176838e+000	1.099635e+000	1.193755e+000	1.130150e+000	9.715688e-001	1.215996e+000	9.690934e-001	9.598322e-001	1.085418e+000	1.247941e+000	1.068106e+000	1.106961e+000	9.740697e-001	1.255262e+000	1.176235e+000	9.864815e-001	1.200786e+000	1.184901e+000	6.