# vtk DataFile Version 3.0
vtk output
ASCII
DATASET UNSTRUCTURED_GRID
POINTS 5233 float
9.997500e-001	-3.632666e-005	0.0	9.990000e-001	-1.451086e-004	0.0	9.977600e-001	-3.235308e-004	0.0	9.960200e-001	-5.685677e-004	0.0	9.937800e-001	-8.705385e-004	0.0	9.910500e-001	-1.212992e-003	0.0	9.878400e-001	-1.578139e-003	0.0	9.841300e-001	-1.958657e-003	0.0	9.799500e-001	-2.361237e-003	0.0	9.752800e-001	-2.827164e-003	0.0	9.701500e-001	-3.423097e-003	0.0	9.645400e-001	-4.239529e-003	0.0	9.584700e-001	-5.357433e-003	0.0	9.519400e-001	-6.830320e-003	0.0	9.449600e-001	-8.662784e-003	0.0	9.375400e-001	-1.081021e-002	0.0	9.296900e-001	-1.319197e-002	0.0	9.214000e-001	-1.571843e-002	0.0	9.127000e-001	-1.829259e-002	0.0	9.035800e-001	-2.084812e-002	0.0	8.940600e-001	-2.333439e-002	0.0	8.841500e-001	-2.572733e-002	0.0	8.738500e-001	-2.802325e-002	0.0	8.631800e-001	-3.022532e-002	0.0	8.521600e-001	-3.234277e-002	0.0	8.407700e-001	-3.439296e-002	0.0	8.290500e-001	-3.638002e-002	0.0	8.170100e-001	-3.831062e-002	0.0	8.046400e-001	-4.019093e-002	0.0	7.919700e-001	-4.201814e-002	0.0	7.790100e-001	-4.379085e-002	0.0	7.657800e-001	-4.550550e-002	0.0	7.522800e-001	-4.716101e-002	0.0	7.385200e-001	-4.875517e-002	0.0	7.245300e-001	-5.028415e-002	0.0	7.103200e-001	-5.174702e-002	0.0	6.958900e-001	-5.314408e-002	0.0	6.812700e-001	-5.447271e-002	0.0	6.664700e-001	-5.573212e-002	0.0	6.515000e-001	-5.692096e-002	0.0	6.363800e-001	-5.803651e-002	0.0	6.211300e-001	-5.907549e-002	0.0	6.057600e-001	-6.003471e-002	0.0	5.902800e-001	-6.091037e-002	0.0	5.747100e-001	-6.169776e-002	0.0	5.590600e-001	-6.239263e-002	0.0	5.433600e-001	-6.299012e-002	0.0	5.276100e-001	-6.348710e-002	0.0	5.118400e-001	-6.388011e-002	0.0	4.960500e-001	-6.416753e-002	0.0	4.802700e-001	-6.434822e-002	0.0	4.645100e-001	-6.442274e-002	0.0	4.487800e-001	-6.439281e-002	0.0	4.331100e-001	-6.426156e-002	0.0	4.175000e-001	-6.403322e-002	0.0	4.019700e-001	-6.371324e-002	0.0	3.865400e-001	-6.330817e-002	0.0	3.712300e-001	-6.282548e-002	0.0	3.560400e-001	-6.227248e-002	0.0	3.409900e-001	-6.165745e-002	0.0	3.261100e-001	-6.098936e-002	0.0	3.114000e-001	-6.027577e-002	0.0	2.968700e-001	-5.952423e-002	0.0	2.825500e-001	-5.874289e-002	0.0	2.684500e-001	-5.793817e-002	0.0	2.545700e-001	-5.711500e-002	0.0	2.409400e-001	-5.627907e-002	0.0	2.275700e-001	-5.543386e-002	0.0	2.144700e-001	-5.458167e-002	0.0	2.016600e-001	-5.372426e-002	0.0	1.891400e-001	-5.286081e-002	0.0	1.769300e-001	-5.199063e-002	0.0	1.650400e-001	-5.111116e-002	0.0	1.534900e-001	-5.021942e-002	0.0	1.422900e-001	-4.931062e-002	0.0	1.314400e-001	-4.837804e-002	0.0	1.209500e-001	-4.741473e-002	0.0	1.108500e-001	-4.641481e-002	0.0	1.011300e-001	-4.536783e-002	0.0	9.181000e-002	-4.426560e-002	0.0	8.290000e-002	-4.309850e-002	0.0	7.440000e-002	-4.185503e-002	0.0	6.633000e-002	-4.052629e-002	0.0	5.869000e-002	-3.910033e-002	0.0	5.149000e-002	-3.756677e-002	0.0	4.474000e-002	-3.591588e-002	0.0	3.844000e-002	-3.413589e-002	0.0	3.260000e-002	-3.221828e-002	0.0	2.723000e-002	-3.015641e-002	0.0	2.232000e-002	-2.793666e-002	0.0	1.790000e-002	-2.556558e-002	0.0	1.395000e-002	-2.302750e-002	0.0	1.049000e-002	-2.033206e-002	0.0	7.520000e-003	-1.748232e-002	0.0	5.040000e-003	-1.448525e-002	0.0	3.050000e-003	-1.135237e-002	0.0	1.560000e-003	-8.125072e-003	0.0	5.600000e-004	-4.818184e-003	0.0	6.000000e-005	-1.520531e-003	0.0	0.000000e+000	0.000000e+000	0.0	6.000000e-005	1.355652e-003	0.0	5.600000e-004	4.108687e-003	0.0	1.560000e-003	6.829694e-003	0.0	3.050000e-003	9.521873e-003	0.0	5.040000e-003	1.220830e-002	0.0	7.520000e-003	1.487250e-002	0.0	1.049000e-002	1.751318e-002	0.0	1.395000e-002	2.012652e-002	0.0	1.790000e-002	2.270755e-002	0.0	2.232000e-002	2.523991e-002	0.0	2.723000e-002	2.773080e-002	0.0	3.260000e-002	3.016066e-002	0.0	3.844000e-002	3.253053e-002	0.0	4.474000e-002	3.483205e-002	0.0	5.149000e-002	3.705779e-002	0.0	5.869000e-002	3.920385e-002	0.0	6.633000e-002	4.126324e-002	0.0	7.440000e-002	4.322958e-002	0.0	8.290000e-002	4.509906e-002	0.0	9.181000e-002	4.686373e-002	0.0	1.011300e-001	4.852028e-002	0.0	1.108500e-001	5.006357e-002	0.0	1.209500e-001	5.148760e-002	0.0	1.314400e-001	5.279099e-002	0.0	1.422900e-001	5.396753e-002	0.0	1.534900e-001	5.501449e-002	0.0	1.650400e-001	5.593034e-002	0.0	1.769300e-001	5.671304e-002	0.0	1.891400e-001	5.736066e-002	0.0	2.016600e-001	5.787281e-002	0.0	2.144700e-001	5.824951e-002	0.0	2.275700e-001	5.849219e-002	0.0	2.409400e-001	5.860253e-002	0.0	2.545700e-001	5.858327e-002	0.0	2.684500e-001	5.843793e-002	0.0	2.825500e-001	5.817127e-002	0.0	2.968700e-001	5.778852e-002	0.0	3.114000e-001	5.729571e-002	0.0	3.261100e-001	5.670049e-002	0.0	3.409900e-001	5.601069e-002	0.0	3.560400e-001	5.523421e-002	0.0	3.712300e-001	5.438108e-002	0.0	3.865400e-001	5.346148e-002	0.0	4.019700e-001	5.248480e-002	0.0	4.175000e-001	5.146183e-002	0.0	4.331100e-001	5.040351e-002	0.0	4.487800e-001	4.932069e-002	0.0	4.645100e-001	4.822250e-002	0.0	4.802700e-001	4.711957e-002	0.0	4.960500e-001	4.602036e-002	0.0	5.118400e-001	4.493232e-002	0.0	5.276100e-001	4.386303e-002	0.0	5.433600e-001	4.281665e-002	0.0	5.590600e-001	4.179784e-002	0.0	5.747100e-001	4.080771e-002	0.0	5.902800e-001	3.984780e-002	0.0	6.057600e-001	3.891685e-002	0.0	6.211300e-001	3.801293e-002	0.0	6.363800e-001	3.713234e-002	0.0	6.515000e-001	3.627045e-002	0.0	6.664700e-001	3.542235e-002	0.0	6.812700e-001	3.458234e-002	0.0	6.958900e-001	3.374330e-002	0.0	7.103200e-001	3.289709e-002	0.0	7.245300e-001	3.203541e-002	0.0	7.385200e-001	3.114650e-002	0.0	7.522800e-001	3.021714e-002	0.0	7.657800e-001	2.923355e-002	0.0	7.790100e-001	2.817902e-002	0.0	7.919700e-001	2.703524e-002	0.0	8.046400e-001	2.578636e-002	0.0	8.170100e-001	2.441885e-002	0.0	8.290500e-001	2.292739e-002	0.0	8.407700e-001	2.131018e-002	0.0	8.521600e-001	1.957746e-002	0.0	8.631800e-001	1.775529e-002	0.0	8.738500e-001	1.586981e-002	0.0	8.841500e-001	1.396070e-002	0.0	8.940600e-001	1.207181e-002	0.0	9.035800e-001	1.024394e-002	0.0	9.127000e-001	8.518721e-003	0.0	9.214000e-001	6.938289e-003	0.0	9.296900e-001	5.538410e-003	0.0	9.375400e-001	4.359328e-003	0.0	9.449600e-001	3.427166e-003	0.0	9.519400e-001	2.754645e-003	0.0	9.584700e-001	2.327256e-003	0.0	9.645400e-001	2.098228e-003	0.0	9.701500e-001	1.994152e-003	0.0	9.752800e-001	1.932462e-003	0.0	9.799500e-001	1.842148e-003	0.0	9.841300e-001	1.682547e-003	0.0	9.878400e-001	1.446545e-003	0.0	9.910500e-001	1.158051e-003	0.0	9.937800e-001	8.514235e-004	0.0	9.960200e-001	5.634230e-004	0.0	9.977600e-001	3.225958e-004	0.0	9.990000e-001	1.450243e-004	0.0	9.997500e-001	3.632533e-005	0.0	1.000000e+000	0.000000e+000	0.0	1.984229e+001	2.506660e+000	0.0	1.937166e+001	4.973800e+000	0.0	1.859553e+001	7.362490e+000	0.0	1.752613e+001	9.635070e+000	0.0	1.618034e+001	1.175571e+001	0.0	1.457937e+001	1.369094e+001	0.0	1.274848e+001	1.541027e+001	0.0	1.071654e+001	1.688656e+001	0.0	8.515590e+000	1.809654e+001	0.0	6.180340e+000	1.902113e+001	0.0	3.747630e+000	1.964575e+001	0.0	1.255810e+000	1.996053e+001	0.0	-1.255810e+000	1.996053e+001	0.0	-3.747630e+000	1.964574e+001	0.0	-6.180340e+000	1.902113e+001	0.0	-8.515590e+000	1.809654e+001	0.0	-1.071654e+001	1.688656e+001	0.0	-1.274848e+001	1.541026e+001	0.0	-1.457937e+001	1.369094e+001	0.0	-1.618034e+001	1.175570e+001	0.0	-1.752613e+001	9.635070e+000	0.0	-1.859553e+001	7.362490e+000	0.0	-1.937166e+001	4.973800e+000	0.0	-1.984229e+001	2.506660e+000	0.0	-2.000000e+001	0.000000e+000	0.0	-1.984229e+001	-2.506670e+000	0.0	-1.937166e+001	-4.973800e+000	0.0	-1.859553e+001	-7.362490e+000	0.0	-1.752613e+001	-9.635080e+000	0.0	-1.618034e+001	-1.175571e+001	0.0	-1.457937e+001	-1.369094e+001	0.0	-1.274848e+001	-1.541027e+001	0.0	-1.071653e+001	-1.688656e+001	0.0	-8.515580e+000	-1.809654e+001	0.0	-6.180340e+000	-1.902113e+001	0.0	-3.747620e+000	-1.964575e+001	0.0	-1.255810e+000	-1.996053e+001	0.0	1.255810e+000	-1.996053e+001	0.0	3.747630e+000	-1.964574e+001	0.0	6.180340e+000	-1.902113e+001	0.0	8.515590e+000	-1.809654e+001	0.0	1.071654e+001	-1.688656e+001	0.0	1.274848e+001	-1.541026e+001	0.0	1.457937e+001	-1.369094e+001	0.0	1.618034e+001	-1.175570e+001	0.0	1.752614e+001	-9.635070e+000	0.0	1.859553e+001	-7.362490e+000	0.0	1.937166e+001	-4.973790e+000	0.0	1.984229e+001	-2.506660e+000	0.0	2.000000e+001	0.000000e+000	0.0	6.088167e-002	-4.686512e-002	0.0	6.602339e-001	-6.988163e-002	0.0	4.261206e-001	6.537660e-002	0.0	6.896426e-001	4.758660e-002	0.0	3.788195e-001	-7.710468e-002	0.0	9.994685e-001	-7.146490e-004	0.0	9.985580e-001	-1.306612e-003	0.0	7.741058e-001	-5.649286e-002	0.0	6.899685e-001	-6.702774e-002	0.0	-1.563646e-003	6.392830e-003	0.0	7.470127e-001	-6.031996e-002	0.0	5.835049e-001	5.478743e-002	0.0	9.927879e-001	-3.526575e-003	0.0	9.898792e-001	-4.344639e-003	0.0	5.990285e-001	5.374306e-002	0.0	7.189360e-001	-6.383254e-002	0.0	-1.698978e-003	6.709060e-004	0.0	9.864782e-001	-5.203874e-003	0.0	9.825965e-001	-6.099740e-003	0.0	-1.660306e-003	-7.396236e-003	0.0	6.451197e-001	-7.117679e-002	0.0	8.248737e-001	-4.799366e-002	0.0	8.000899e-001	-5.238609e-002	0.0	3.490337e-001	6.945488e-002	0.0	8.483245e-001	-4.334434e-002	0.0	2.476364e-001	7.104170e-002	0.0	8.703775e-001	-3.839535e-002	0.0	9.834711e-003	2.202755e-002	0.0	8.909112e-001	-3.311986e-002	0.0	7.721131e-002	-5.039963e-002	0.0	9.098339e-001	-2.756296e-002	0.0	-2.077529e-003	-3.648151e-003	0.0	9.425118e-001	-1.676754e-002	0.0	9.270547e-001	-2.195697e-002	0.0	1.779330e-002	-3.060953e-002	0.0	4.254482e-001	-7.836541e-002	0.0	8.595356e-001	-4.090728e-002	0.0	9.562045e-001	-1.250081e-002	0.0	9.782337e-001	-7.071873e-003	0.0	9.681253e-001	-9.350542e-003	0.0	1.584192e-001	-6.155465e-002	0.0	9.005820e-001	-3.036765e-002	0.0	7.606924e-001	-5.844384e-002	0.0	9.971368e-001	-2.036904e-003	0.0	5.989747e-001	-7.450141e-002	0.0	4.411601e-001	-7.857983e-002	0.0	5.361361e-001	-7.749018e-002	0.0	4.727571e-001	-7.867654e-002	0.0	5.044509e-001	-7.831481e-002	0.0	4.885910e-001	-7.855242e-002	0.0	1.251620e-001	-5.777450e-002	0.0	2.778221e-002	-3.597834e-002	0.0	3.942652e-001	-7.762310e-002	0.0	4.628851e-002	-4.290
[...]
POINT_DATA 5233

SCALARS Density float 1
LOOKUP_TABLE default
1.178419e+000	1.157481e+000	1.143538e+000	1.132284e+000	1.123591e+000	1.118471e+000	1.117838e+000	1.122046e+000	1.129971e+000	1.139259e+000	1.146895e+000	1.150326e+000	1.147946e+000	1.139181e+000	1.124247e+000	1.104066e+000	1.080079e+000	1.054052e+000	1.027892e+000	1.003595e+000	9.826642e-001	9.657474e-001	9.526659e-001	9.427737e-001	9.352084e-001	9.293992e-001	9.250131e-001	9.214945e-001	9.178911e-001	9.152649e-001	9.194334e-001	9.349943e-001	9.420898e-001	8.888373e-001	7.611722e-001	6.885597e-001	6.862888e-001	6.995620e-001	7.097682e-001	7.160105e-001	7.210383e-001	7.261668e-001	7.313980e-001	7.367700e-001	7.425037e-001	7.488241e-001	7.558131e-001	7.634381e-001	7.713996e-001	7.794232e-001	7.874210e-001	7.956954e-001	8.044323e-001	8.136530e-001	8.230240e-001	8.322173e-001	8.410326e-001	8.494312e-001	8.574253e-001	8.649905e-001	8.720809e-001	8.786430e-001	8.846087e-001	8.899362e-001	8.945703e-001	8.984604e-001	9.015733e-001	9.038736e-001	9.053296e-001	9.059033e-001	9.055690e-001	9.042970e-001	9.020937e-001	8.989143e-001	8.947551e-001	8.896008e-001	8.834834e-001	8.763753e-001	8.681342e-001	8.588421e-001	8.493956e-001	8.413633e-001	8.364047e-001	8.356154e-001	8.396451e-001	8.489186e-001	8.635993e-001	8.840018e-001	9.107202e-001	9.443443e-001	9.855856e-001	1.034319e+000	1.089240e+000	1.148381e+000	1.208596e+000	1.265170e+000	1.309954e+000	1.344366e+000	1.352994e+000	1.345160e+000	1.340202e+000	1.314171e+000	1.258616e+000	1.207292e+000	1.155547e+000	1.107101e+000	1.063622e+000	1.025151e+000	9.909296e-001	9.605638e-001	9.334445e-001	9.088922e-001	8.866105e-001	8.661783e-001	8.473322e-001	8.299057e-001	8.135863e-001	7.981000e-001	7.833948e-001	7.694392e-001	7.563199e-001	7.440516e-001	7.324306e-001	7.210903e-001	7.098950e-001	6.990737e-001	6.890988e-001	6.799449e-001	6.713055e-001	6.628648e-001	6.547417e-001	6.471846e-001	6.404496e-001	6.345305e-001	6.293829e-001	6.248826e-001	6.209367e-001	6.175480e-001	6.146110e-001	6.121603e-001	6.102017e-001	6.088916e-001	6.082582e-001	6.089587e-001	6.111114e-001	6.136597e-001	6.132463e-001	6.257516e-001	7.415321e-001	9.423107e-001	1.007856e+000	1.000391e+000	9.918371e-001	9.919367e-001	9.916701e-001	9.900149e-001	9.883500e-001	9.867187e-001	9.849321e-001	9.829241e-001	9.807628e-001	9.784085e-001	9.758987e-001	9.731995e-001	9.703764e-001	9.674607e-001	9.646288e-001	9.620835e-001	9.602257e-001	9.595342e-001	9.605943e-001	9.639499e-001	9.700389e-001	9.790210e-001	9.906557e-001	1.004409e+000	1.019520e+000	1.035223e+000	1.050795e+000	1.065805e+000	1.079881e+000	1.092735e+000	1.103954e+000	1.112995e+000	1.119051e+000	1.121295e+000	1.119013e+000	1.112027e+000	1.101131e+000	1.088552e+000	1.077571e+000	1.071494e+000	1.072556e+000	1.080740e+000	1.093859e+000	1.109686e+000	1.126569e+000	1.144835e+000	1.165362e+000	1.156468e+000	9.991622e-001	9.998584e-001	9.999841e-001	9.999514e-001	9.999559e-001	9.999549e-001	9.999445e-001	9.999222e-001	9.998917e-001	9.998704e-001	9.998655e-001	9.998993e-001	9.999691e-001	1.000074e+000	1.000154e+000	1.000208e+000	1.000228e+000	1.000234e+000	1.000226e+000	1.000219e+000	1.000208e+000	1.000200e+000	1.000192e+000	1.000190e+000	1.000189e+000	1.000191e+000	1.000198e+000	1.000207e+000	1.000221e+000	1.000241e+000	1.000261e+000	1.000288e+000	1.000309e+000	1.000332e+000	1.000335e+000	1.000312e+000	1.000260e+000	1.000195e+000	1.000143e+000	1.000110e+000	1.000095e+000	1.000084e+000	1.000072e+000	1.000058e+000	1.000045e+000	1.000011e+000	9.999780e-001	1.000047e+000	9.994762e-001	9.986934e-001	8.531120e-001	7.181529e-001	6.135561e-001	9.780355e-001	8.492979e-001	1.161062e+000	1.150223e+000	9.311241e-001	6.980930e-001	1.298085e+000	9.454076e-001	9.900516e-001	1.123885e+000	1.120965e+000	9.884969e-001	7.060570e-001	1.341984e+000	1.121499e+000	1.125086e+000	1.327164e+000	7.232790e-001	9.293601e-001	9.214028e-001	6.154820e-001	9.392960e-001	6.461566e-001	9.559925e-001	1.078703e+000	9.827776e-001	8.571232e-001	1.021940e+000	1.348142e+000	1.107945e+000	1.067577e+000	1.007450e+000	8.232523e-001	9.466666e-001	1.132971e+000	1.130448e+000	1.138767e+000	9.035426e-001	1.000957e+000	9.509339e-001	1.138620e+000	7.391615e-001	8.141366e-001	7.652054e-001	7.969882e-001	7.810936e-001	7.890474e-001	8.916665e-001	9.340853e-001	8.410170e-001	8.687317e-001	8.323086e-001	8.781379e-001	8.645960e-001	9.065434e-001	8.895403e-001	1.089149e+000	9.004235e-001	9.077576e-001	8.640452e-001	8.795309e-001	7.509762e-001	9.057897e-001	7.337735e-001	9.678573e-001	9.676470e-001	1.129998e+000	1.154446e+000	1.006796e+000	1.044634e+000	1.122808e+000	1.135664e+000	1.256823e+000	9.336629e-001	9.018262e-001	7.577928e-001	8.353664e-001	9.207357e-001	8.860675e-001	9.063759e-001	7.448317e-001	7.110942e-001	8.582466e-001	1.206433e+000	1.052713e+000	8.571517e-001	9.071983e-001	1.191218e+000	9.044863e-001	8.720004e-001	8.841332e-001	8.984294e-001	8.053254e-001	6.885886e-001	1.330985e+000	1.296827e+000	9.918149e-001	1.346412e+000	9.481819e-001	8.592031e-001	8.998183e-001	7.526145e-001	6.111649e-001	1.119804e+000	1.004365e+000	6.399003e-001	1.093511e+000	1.108213e+000	1.043852e+000	8.594525e-001	6.126544e-001	6.115383e-001	1.093124e+000	1.070597e+000	8.081016e-001	1.085562e+000	1.111663e+000	1.108210e+000	7.785850e-001	8.411191e-001	6.297610e-001	6.400262e-001	6.962108e-001	6.216674e-001	6.137126e-001	6.107186e-001	7.172111e-001	7.405582e-001	9.855889e-001	6.777902e-001	6.607392e-001	9.820982e-001	9.912794e-001	9.688692e-001	9.734925e-001	9.657398e-001	9.653970e-001	9.907864e-001	9.735134e-001	1.057593e+000	1.015805e+000	1.111625e+000	1.082564e+000	1.101745e+000	1.002602e+000	1.029767e+000	9.684898e-001	9.809739e-001	9.668522e-001	9.648662e-001	9.758011e-001	9.711323e-001	9.839081e-001	9.801241e-001	9.907064e-001	9.870692e-001	6.690742e-001	6.530968e-001	7.063242e-001	6.868325e-001	8.786647e-001	7.287757e-001	1.040909e+000	9.229123e-001	9.074795e-001	1.164607e+000	1.138183e+000	9.254266e-001	8.716120e-001	7.730932e-001	1.211457e+000	9.759873e-001	1.120006e+000	7.929112e-001	8.241322e-001	6.345768e-001	7.651904e-001	1.080282e+000	1.079571e+000	6.254782e-001	1.084244e+000	1.093379e+000	6.183778e-001	6.131761e-001	1.101855e+000	1.178128e+000	1.135598e+000	1.150253e+000	7.285029e-001	8.847872e-001	1.105689e+000	1.008047e+000	1.255519e+000	1.102412e+000	8.529970e-001	8.964549e-001	8.943211e-001	8.355810e-001	1.278255e+000	1.312308e+000	8.941846e-001	6.960780e-001	1.037253e+000	1.149993e+000	9.899398e-001	7.109939e-001	9.288138e-001	1.122136e+000	8.778958e-001	9.511327e-001	9.382771e-001	8.786523e-001	1.305413e+000	9.088874e-001	1.061495e+000	1.125489e+000	9.055592e-001	7.041724e-001	7.256549e-001	8.153413e-001	8.736149e-001	8.495212e-001	1.000020e+000	9.270891e-001	1.121563e+000	1.016921e+000	9.816152e-001	9.921198e-001	7.756872e-001	9.799423e-001	7.155028e-001	1.025680e+000	1.087593e+000	6.233475e-001	1.007144e+000	1.103825e+000	1.038116e+000	1.093189e+000	1.103100e+000	1.086608e+000	6.609650e-001	6.272384e-001	6.687119e-001	7.892703e-001	7.193644e-001	9.097272e-001	1.084065e+000	7.377950e-001	8.910873e-001	1.095465e+000	1.101990e+000	1.050418e+000	9.076947e-001	1.189226e+000	1.125150e+000	1.112795e+000	1.160967e+000	1.241766e+000	1.194919e+000	1.341465e+000	1.339196e+000	1.021021e+000	1.194982e+000	8.720975e-001	1.141391e+000	1.127323e+000	6.157363e-001	7.676380e-001	1.122901e+000	9.709671e-001	9.884445e-001	1.123491e+000	1.330725e+000	8.239675e-001	6.147450e-001	9.438899e-001	6.415608e-001	9.600245e-001	9.842350e-001	8.709419e-001	1.017932e+000	1.056964e+000	1.107277e+000	9.534583e-001	1.118234e+000	1.129137e+000	1.125220e+000	8.990965e-001	9.529263e-001	9.407064e-001	1.133437e+000	8.070874e-001	7.991968e-001	7.911883e-001	9.849932e-001	8.413544e-001	8.327516e-001	8.714383e-001	9.054084e-001	1.075878e+000	1.092953e+000	9.026717e-001	8.844667e-001	7.605152e-001	7.421758e-001	1.129636e+000	1.127923e+000	7.831681e-001	9.135524e-001	8.900233e-001	8.948936e-001	7.539956e-001	7.478805e-001	8.892355e-001	8.781021e-001	1.104765e+000	8.645588e-001	8.572492e-001	9.091344e-001	9.098043e-001	9.073302e-001	9.050551e-001	8.893094e-001	8.838640e-001	9.020937e-001	1.333023e+000	1.238176e+000	9.122195e-001	1.085288e+000	9.922299e-001	9.751815e-001	7.255066e-001	6.192981e-001	1.090468e+000	1.100076e+000	1.082934e+000	6.064107e-001	6.166435e-001	6.158696e-001	1.073149e+000	1.102003e+000	8.528859e-001	8.713678e-001	6.539074e-001	6.473895e-001	7.262877e-001	7.501643e-001	7.627688e-001	9.709527e-001	9.727601e-001	9.744535e-001	9.700333e-001	9.838901e-001	1.062179e+000	1.013505e+000	1.002156e+000	9.776599e-001	9.734086e-001	9.702915e-001	9.712607e-001	9.763140e-001	9.781204e-001	9.832579e-001	9.847226e-001	9.910543e-001	9.898186e-001	9.861028e-001	9.872381e-001	6.769520e-001	6.859426e-001	6.953980e-001	7.053467e-001	1.049242e+000	9.351656e-001	9.602564e-001	9.300072e-001	9.338552e-001	7.831424e-001	7.751680e-001	1.202029e+000	9.874555e-001	8.037550e-001	8.191965e-001	6.314633e-001	6.362464e-001	6.176471e-001	6.201310e-001	1.097726e+000	1.091246e+000	7.366141e-001	7.311077e-001	9.267849e-001	1.276366e+000	8.984566e-001	1.309449e+000	8.502907e-001	8.944403e-001	9.333761e-001	7.783018e-001	1.049224e+000	1.093825e+000	1.089880e+000	1.096318e+000	1.193496e+000	1.100511e+000	1.137844e+000	1.155677e+000	1.134801e+000	1.177459e+000	1.033936e+000	1.314967e+000	8.917159e-001	1.065788e+000	1.122098e+000	9.909552e-001	1.151438e+000	1.186266e+000	7.100204e-001	1.257268e+000	7.535078e-001	1.069763e+000	9.741124e-001	1.147254e+000	8.781476e-001	9.639952e-001	7.125141e-001	1.125086e+000	1.108207e+000	1.089215e+000	9.983477e-001	1.096188e+000	9.831644e-001	1.108662e+000	1.004707e+000	6.554936e-001	6.331713e-001	7.371087e-001	8.654933e-001	1.147796e+000	1.282174e+000	1.257758e+000	1.056462e+000	1.291419e+000	1.118986e+000	8.885146e-001	1.333722e+000	9.102113e-001	8.172897e-001	1.001083e+000	1.122515e+000	9.944754e-001	9.760489e-001	9.818389e-001	1.088400e+000	1.097130e+000	1.044735e+000	1.033789e+000	6.380258e-001	6.490669e-001	6.776730e-001	8.013365e-001	7.283343e-001	7.209253e-001	9.116833e-001	1.088778e+000	7.482477e-001	1.091484e+000	1.117277e+000	1.157702e+000	1.228338e+000	1.223430e+000	1.323702e+000	9.712512e-001	1.165684e+000	1.157566e+000	1.121697e+000	1.120988e+000	9.894067e-001	8.253314e-001	6.204813e-001	9.484624e-001	9.555409e-001	9.860088e-001	9.998967e-001	8.899347e-001	8.874590e-001	1.015370e+000	1.032113e+000	1.105537e+000	1.113695e+000	1.121120e+000	9.509875e-001	9.380821e-001	1.129284e+000	8.095754e-001	8.017639e-001	8.421666e-001	8.337191e-001	9.458395e-001	1.081185e+000	1.094557e+000	9.059106e-001	9.083631e-001	7.710149e-001	7.643384e-001	1.122411e+000	1.121878e+000	8.702629e-001	9.476813e-001	8.957190e-001	8.994788e-001	9.028678e-001	7.577941e-001	7.518013e-001	9.252020e-001	9.088097e-001	8.969452e-001	8.718069e-001	8.650201e-001	8.578700e-001	9.115786e-001	9.122868e-001	9.123358e-001	9.103964e-001	9.084439e-001	8.895079e-001	8.840661e-001	9.058627e-001	9.250913e-001	8.627334e-001	6.359169e-001	1.094176e+000	6.035678e-001	6.173334e-001	6.184669e-001	6.208920e-001	1.074258e+000	8.841296e-001	9.040464e-001	6.622870e-001	6.698413e-001	7.603120e-001	7.738070e-001	7.875806e-001	9.764131e-001	1.065291e+000	1.055276e+000	1.022872e+000	1.012385e+000	1.002919e+000	9.873654e-001	9.820871e-001	9.783231e-001	9.750342e-001	9.748965e-001	9.754589e-001	9.776301e-001	9.790072e-001	9.803891e-001	9.845322e-001	9.909113e-001	9.894136e-001	9.856803e-001	9.868283e-001	9.878345e-001	6.861459e-001	6.949772e-001	7.048132e-001	7.152303e-001	7.262270e-001	9.474275e-001	9.718385e-001	9.350998e-001	9.387992e-001	9.430193e-001	7.937411e-001	7.857582e-001	9.983879e-001	1.026400e+000	8.158258e-001	8.314222e-001	8.479625e-001	6.433193e-001	6.231652e-001	6.258467e-001	6.291049e-001	1.093317e+000	1.088569e+000	1.082166e+000	7.457677e-001	7.399623e-001	7.339815e-001	9.026404e-001	8.988263e-001	1.287315e+000	9.038616e-001	1.111969e+000	1.089651e+000	7.816728e-001	1.295563e+000	1.140914e+000	1.058127e+000	1.071878e+000	9.869615e-001	1.098673e+000	9.752983e-001	1.261209e+000	1.091152e+000	1.175871e+000	1.091695e+000	1.104816e+000	1.239747e+000	9.844406e-001	1.213677e+000	1.159425e+000	1.168390e+000	9.383206e-001	9.149335e-001	1.044589e+000	8.515852e-001	9.025384e-001	8.278281e-001	8.950720e-001	1.090937e+000	9.890933e-001	1.090915e+000	1.088866e+000	9.810345e-001	7.611825e-001	6.731364e-001	1.119664e+000	8.965694e-001	9.779572e-001	1.126367e+000	1.093893e+000	1.129655e+000	1.115718e+000	1.075645e+000	7.236791e-001	1.208346e+000	7.519981e-001	8.276075e-001	1.109088e+000	1.121851e+000	1.142903e+000	9.963307e-001	1.008051e+000	6.523360e-001	1.269988e+000	1.121403e+000	9.834468e-001	1.040740e+000	6.467682e-001	6.589537e-001	6.654954e-001	7.297738e-001	7.271500e-001	1.089720e+000	1.151957e+000	1.183387e+000	1.238128e+000	1.303458e+000	1.014554e+000	1.113205e+000	1.118362e+000	9.888631e-001	9.602138e-001	9.681246e-001	9.887576e-001	1.001126e+000	9.070615e-001	9.032685e-001	1.014526e+000	1.028984e+000	1.043697e+000	1.102697e+000	1.109008e+000	9.484543e-001	9.406112e-001	1.125240e+000	8.203562e-001	8.128570e-001	8.434408e-001	8.354844e-001	1.084110e+000	1.094273e+000	9.126205e-001	9.138263e-001	7.759103e-001	1.116961e+000	1.117649e+000	9.218657e-001	9.561464e-001	9.060065e-001	9.083383e-001	9.107144e-001	7.680432e-001	7.625967e-001	9.639411e-001	9.440092e-001	9.271237e-001	9.146593e-001	8.789003e-001	8.726869e-001	8.661318e-001	8.591178e-001	9.155099e-001	9.155679e-001	9.149405e-001	9.138154e-001	9.120579e-001	8.847309e-001	8.901164e-001	9.097858e-001	7.233146e-001	1.090543e+000	1.091406e+000	6.196954e-001	6.090655e-001	6.214767e-001	6.262853e-001	6.277294e-001	9.165142e-001	9.377447e-001	6.806057e-001	6.892333e-001	7.728197e-001	7.855303e-001	7.998954e-001	8.145808e-001	1.067100e+000	1.058909e+000	1.050102e+000	1.031148e+000	1.021866e+000	1.013014e+000	1.004396e+000	9.914581e-001	9.865441e-001	9.822999e-001	9.790277e-001	9.793005e-001	9.788189e-001	9.798315e-001	9.802130e-001	9.814482e-001	9.822545e-001	9.964711e-001	9.895733e-001	9.854915e-001	9.865205e-001	9.873977e-001	9.884934e-001	6.974838e-001	7.067525e-001	7.158214e-001	7.263645e-001	7.372797e-001	7.490781e-001	9.594520e-001	9.822229e-001	9.427052e-001	9.476765e-001	9.532737e-001	8.045047e-001	7.961557e-001	7.899650e-001	1.007657e+000	1.034408e+000	1.061687e+000	8.291277e-001	8.442777e-001	8.608726e-001	8.782902e-001	6.306064e-001	6.337576e-001	6.372799e-001	6.414825e-001	1.074337e+000	1.085318e+000	1.080574e+000	7.552097e-001	7.499814e-001	7.429857e-001	7.370469e-001	9.068848e-001	9.034751e-001	8.995101e-001	1.109620e+000	1.108870e+000	1.108458e+000	1.152943e+000	1.139092e+000	8.419101e-001	9.155302e-001	1.167424e+000	1.089212e+000	1.221192e+000	1.025929e+000	9.196316e-001	7.878984e-001	1.119929e+000	1.200580e+000	1.270892e+000	1.314673e+000	1.314066e+000	1.305321e+000	1.242333e+000	1.126501e+000	6.632236e-001	1.111019e+000	1.118379e+000	1.074668e+000	9.440288e-001	8.526800e-001	1.101531e+000	1.068404e+000	1.082142e+000	9.976369e-001	1.009952e+000	9.846039e-001	9.836682e-001	8.454677e-001	7.901523e-001	6.551345e-001	1.096905e+000	9.159856e-001	1.142265e+000	1.090658e+000	1.308901e+000	1.162749e+000	1.153768e+000	1.064508e+000	1.001958e+000	1.264703e+000	1.092626e+000	1.195119e+000	1.086669e+000	1.223781e+000	1.153718e+000	1.157521e+000	1.081043e+000	8.908882e-001	8.963420e-001	1.093149e+000	9.863674e-001	1.084990e+000	1.116171e+000	7.495952e-001	1.249067e+000	6.680595e-001	6.774670e-001	6.830909e-001	7.391518e-001	1.146805e+000	1.174005e+000	1.280461e+000	1.053731e+000	9.726121e-001	9.799433e-001	9.913575e-001	1.001795e+000	9.183107e-001	9.243379e-001	1.014723e+000	1.026807e+000	1.039700e+000	1.053340e+000	1.099748e+000	1.104813e+000	9.525499e-001	1.121059e+000	8.305366e-001	8.245763e-001	8.447714e-001	8.386157e-001	1.085546e+000	1.093095e+000	9.188667e-001	9.186177e-001	1.112913e+000	1.114462e+000	9.438284e-001	9.159058e-001	9.159292e-001	9.183202e-001	7.764430e-001	9.806146e-001	9.610561e-001	9.444533e-001	9.330791e-001	8.861558e-001	8.798616e-001	8.744448e-001	8.672511e-001	8.612995e-001	9.190637e-001	9.189399e-001	9.173665e-001	9.162027e-001	9.136898e-001	1.088497e+000	1.088141e+000	1.087662e+000	6.515273e-001	6.218260e-001	6.173617e-001	6.280331e-001	6.339776e-001	9.290745e-001	9.500483e-001	6.935935e-001	6.999462e-001	7.966478e-001	8.123857e-001	8.281976e-001	1.060991e+000	1.054082e+000	1.045832e+000	1.037709e+000	1.029356e+000	1.021003e+000	1.013055e+000	1.002154e+000	9.947257e-001	9.878366e-001	9.820799e-001	9.822200e-001	9.831897e-001	9.862776e-001	9.869638e-001	7.114140e-001	7.181175e-001	7.302913e-001	7.374303e-001	7.507497e-001	7.623253e-001	7.748078e-001	9.713913e-001	9.927945e-001	9.497843e-001	9.559581e-001	9.642349e-001	8.154495e-001	8.033898e-001	1.015847e+000	1.041449e+000	1.066538e+000	8.435211e-001	8.586331e-001	8.745386e-001	8.926062e-001	9.106726e-001	6.389127e-001	6.412031e-001	6.468483e-001	6.513607e-001	1.078672e+000	1.072959e+000	7.629888e-001	7.495605e-001	9.115003e-001	9.079547e-001	9.048165e-001	9.003318e-001	1.146155e+000	1.132861e+000	1.159181e+000	1.281629e+000	1.161568e+000	1.107303e+000	1.094903e+000	1.230208e+000	1.083406e+000	1.128267e+000	1.112069e+000	1.259939e+000	1.036129e+000	1.134529e+000	6.692315e-001	1.153333e+000	1.141259e+000	1.208550e+000	1.109359e+000	1.104603e+000	8.044797e-001	1.091703e+000	8.948591e-001	1.076639e+000	1.063060e+000	7.634634e-001	9.269234e-001	9.232043e-001	1.224358e+000	8.505170e-001	9.340596e-001	9.300358e-001	8.183446e-001	1.087424e+000	1.064476e+000	1.249975e+000	1.117329e+000	1.101248e+000	1.147073e+000	1.089186e+000	1.311189e+000	1.243578e+000	1.114404e+000	9.102627e-001	9.293137e-001	6.704199e-001	1.098917e+000	1.152493e+000	1.112379e+000	1.287858e+000	1.157182e+000	1.015208e+000	1.205132e+000	1.182913e+000	9.886253e-001	1.060132e+000	1.081881e+000	1.078739e+000	1.008968e+000	6.834506e-001	6.999106e-001	8.099286e-001	1.164864e+000	1.187715e+000	1.085379e+000	9.876754e-001	1.007472e+000	9.399007e-001	1.029867e+000	1.048666e+000	1.096909e+000	1.117143e+000	8.380491e-001	1.085527e+000	1.091453e+000	9.239043e-001	1.109638e+000	9.548721e-001	9.511275e-001	9.245754e-001	9.251303e-001	7.913540e-001	9.955035e-001	9.759464e-001	9.591579e-001	9.515560e-001	8.844434e-001	8.728015e-001	8.622960e-001	9.209571e-001	9.169689e-001	1.086082e+000	1.084875e+000	6.295416e-001	6.405779e-001	9.609404e-001	7.180419e-001	8.411990e-001	9.957681e-001	1.052529e+000	1.038245e+000	1.023730e+000	1.012090e+000	1.003099e+000	9.895977e-001	9.858239e-001	9.840410e-001	9.835011e-001	9.837168e-001	9.846458e-001	9.848416e-001	9.823962e-001	7.375321e-001	7.576671e-001	7.771888e-001	7.863052e-001	8.018860e-001	9.827072e-001	1.003035e+000	9.504118e-001	9.615954e-001	9.753586e-001	8.275695e-001	8.166169e-001	1.023590e+000	1.046834e+000	1.070504e+000	1.093427e+000	8.583738e-001	8.736238e-001	8.889410e-001	9.061458e-001	9.267222e-001	9.404278e-001	6.522776e-001	6.614016e-001	1.076927e+000	1.072314e+000	7.774875e-001	7.524111e-001	7.565586e-001	9.112333e-001	9.038376e-001	1.102971e+000	1.147280e+000	1.142971e+000	1.117958e+000	9.821446e-001	1.096206e+000	1.150124e+000	1.124969e+000	1.171909e+000	1.109127e+000	1.132845e+000	1.119904e+000	1.156297e+000	1.230340e+000	1.240171e+000	1.083027e+000	9.447722e-001	6.799874e-001	1.108898e+000	1.040826e+000	1.065591e+000	9.628198e-001	1.135915e+000	1.151676e+000	8.621846e-001	1.077916e+000	7.663499e-001	8.058713e-001	1.101663e+000	1.104701e+000	1.045067e+000	1.027806e+000	1.147660e+000	1.089512e+000	1.092416e+000	1.079342e+000	7.088167e-001	9.824739e-001	8.022880e-001	9.530936e-001	1.129664e+000	1.135502e+000	1.291330e+000	1.098262e+000	1.081116e+000	1.156745e+000	1.107325e+000	1.212988e+000	1.130230e+000	8.183360e-001	1.224496e+000	9.492424e-001	9.416934e-001	1.087059e+000	1.261799e+000	1.094400e+000	1.109939e+000	8.841236e-001	1.265676e+000	1.156940e+000	9.652567e-001	1.208033e+000	1.190788e+000	9.