# vtk DataFile Version 3.0
vtk output
ASCII
DATASET UNSTRUCTURED_GRID
POINTS 5233 float
9.997500e-001	-3.632788e-005	0.0	9.990000e-001	-1.451849e-004	0.0	9.977600e-001	-3.243539e-004	0.0	9.960200e-001	-5.728933e-004	0.0	9.937800e-001	-8.855156e-004	0.0	9.910500e-001	-1.251771e-003	0.0	9.878400e-001	-1.657955e-003	0.0	9.841300e-001	-2.092667e-003	0.0	9.799500e-001	-2.540831e-003	0.0	9.752800e-001	-2.999570e-003	0.0	9.701500e-001	-3.470344e-003	0.0	9.645400e-001	-3.969138e-003	0.0	9.584700e-001	-4.515380e-003	0.0	9.519400e-001	-5.133307e-003	0.0	9.449600e-001	-5.845310e-003	0.0	9.375400e-001	-6.670172e-003	0.0	9.296900e-001	-7.621825e-003	0.0	9.214000e-001	-8.711328e-003	0.0	9.127000e-001	-9.938014e-003	0.0	9.035800e-001	-1.129850e-002	0.0	8.940600e-001	-1.277587e-002	0.0	8.841500e-001	-1.434516e-002	0.0	8.738500e-001	-1.597497e-002	0.0	8.631800e-001	-1.762559e-002	0.0	8.521600e-001	-1.925619e-002	0.0	8.407700e-001	-2.083431e-002	0.0	8.290500e-001	-2.232477e-002	0.0	8.170100e-001	-2.370520e-002	0.0	8.046400e-001	-2.496438e-002	0.0	7.919700e-001	-2.609588e-002	0.0	7.790100e-001	-2.710397e-002	0.0	7.657800e-001	-2.799901e-002	0.0	7.522800e-001	-2.879776e-002	0.0	7.385200e-001	-2.951936e-002	0.0	7.245300e-001	-3.018352e-002	0.0	7.103200e-001	-3.081105e-002	0.0	6.958900e-001	-3.142180e-002	0.0	6.812700e-001	-3.203211e-002	0.0	6.664700e-001	-3.265629e-002	0.0	6.515000e-001	-3.330539e-002	0.0	6.363800e-001	-3.398662e-002	0.0	6.211300e-001	-3.470384e-002	0.0	6.057600e-001	-3.545823e-002	0.0	5.902800e-001	-3.624826e-002	0.0	5.747100e-001	-3.706956e-002	0.0	5.590600e-001	-3.791636e-002	0.0	5.433600e-001	-3.878036e-002	0.0	5.276100e-001	-3.965392e-002	0.0	5.118400e-001	-4.052712e-002	0.0	4.960500e-001	-4.139150e-002	0.0	4.802700e-001	-4.223700e-002	0.0	4.645100e-001	-4.305500e-002	0.0	4.487800e-001	-4.383735e-002	0.0	4.331100e-001	-4.457562e-002	0.0	4.175000e-001	-4.526354e-002	0.0	4.019700e-001	-4.589474e-002	0.0	3.865400e-001	-4.646369e-002	0.0	3.712300e-001	-4.696580e-002	0.0	3.560400e-001	-4.739788e-002	0.0	3.409900e-001	-4.775677e-002	0.0	3.261100e-001	-4.803991e-002	0.0	3.114000e-001	-4.824597e-002	0.0	2.968700e-001	-4.837379e-002	0.0	2.825500e-001	-4.842247e-002	0.0	2.684500e-001	-4.839171e-002	0.0	2.545700e-001	-4.828124e-002	0.0	2.409400e-001	-4.809112e-002	0.0	2.275700e-001	-4.782142e-002	0.0	2.144700e-001	-4.747216e-002	0.0	2.016600e-001	-4.704359e-002	0.0	1.891400e-001	-4.653520e-002	0.0	1.769300e-001	-4.594706e-002	0.0	1.650400e-001	-4.527875e-002	0.0	1.534900e-001	-4.453038e-002	0.0	1.422900e-001	-4.370148e-002	0.0	1.314400e-001	-4.279063e-002	0.0	1.209500e-001	-4.179695e-002	0.0	1.108500e-001	-4.072182e-002	0.0	1.011300e-001	-3.956272e-002	0.0	9.181000e-002	-3.832050e-002	0.0	8.290000e-002	-3.699538e-002	0.0	7.440000e-002	-3.558630e-002	0.0	6.633000e-002	-3.409596e-002	0.0	5.869000e-002	-3.252423e-002	0.0	5.149000e-002	-3.087334e-002	0.0	4.474000e-002	-2.914647e-002	0.0	3.844000e-002	-2.734487e-002	0.0	3.260000e-002	-2.547305e-002	0.0	2.723000e-002	-2.353671e-002	0.0	2.232000e-002	-2.153438e-002	0.0	1.790000e-002	-1.948141e-002	0.0	1.395000e-002	-1.737155e-002	0.0	1.049000e-002	-1.521744e-002	0.0	7.520000e-003	-1.302187e-002	0.0	5.040000e-003	-1.078547e-002	0.0	3.050000e-003	-8.504613e-003	0.0	1.560000e-003	-6.185233e-003	0.0	5.600000e-004	-3.792443e-003	0.0	6.000000e-005	-1.290718e-003	0.0	0.000000e+000	0.000000e+000	0.0	6.000000e-005	1.498045e-003	0.0	5.600000e-004	4.699745e-003	0.0	1.560000e-003	7.907648e-003	0.0	3.050000e-003	1.107168e-002	0.0	5.040000e-003	1.419942e-002	0.0	7.520000e-003	1.726351e-002	0.0	1.049000e-002	2.025959e-002	0.0	1.395000e-002	2.318288e-002	0.0	1.790000e-002	2.602858e-002	0.0	2.232000e-002	2.878021e-002	0.0	2.723000e-002	3.144749e-002	0.0	3.260000e-002	3.401147e-002	0.0	3.844000e-002	3.647564e-002	0.0	4.474000e-002	3.883370e-002	0.0	5.149000e-002	4.108073e-002	0.0	5.869000e-002	4.321577e-002	0.0	6.633000e-002	4.523508e-002	0.0	7.440000e-002	4.713599e-002	0.0	8.290000e-002	4.891869e-002	0.0	9.181000e-002	5.057979e-002	0.0	1.011300e-001	5.212060e-002	0.0	1.108500e-001	5.354094e-002	0.0	1.209500e-001	5.484002e-002	0.0	1.314400e-001	5.602130e-002	0.0	1.422900e-001	5.708377e-002	0.0	1.534900e-001	5.802939e-002	0.0	1.650400e-001	5.886093e-002	0.0	1.769300e-001	5.958025e-002	0.0	1.891400e-001	6.018883e-002	0.0	2.016600e-001	6.068895e-002	0.0	2.144700e-001	6.108258e-002	0.0	2.275700e-001	6.137235e-002	0.0	2.409400e-001	6.156037e-002	0.0	2.545700e-001	6.164909e-002	0.0	2.684500e-001	6.164104e-002	0.0	2.825500e-001	6.153911e-002	0.0	2.968700e-001	6.134638e-002	0.0	3.114000e-001	6.106622e-002	0.0	3.261100e-001	6.070293e-002	0.0	3.409900e-001	6.026098e-002	0.0	3.560400e-001	5.974496e-002	0.0	3.712300e-001	5.916101e-002	0.0	3.865400e-001	5.851562e-002	0.0	4.019700e-001	5.781487e-002	0.0	4.175000e-001	5.706604e-002	0.0	4.331100e-001	5.627663e-002	0.0	4.487800e-001	5.545417e-002	0.0	4.645100e-001	5.460480e-002	0.0	4.802700e-001	5.373560e-002	0.0	4.960500e-001	5.285162e-002	0.0	5.118400e-001	5.195647e-002	0.0	5.276100e-001	5.105321e-002	0.0	5.433600e-001	5.014105e-002	0.0	5.590600e-001	4.921860e-002	0.0	5.747100e-001	4.828012e-002	0.0	5.902800e-001	4.731902e-002	0.0	6.057600e-001	4.632497e-002	0.0	6.211300e-001	4.528598e-002	0.0	6.363800e-001	4.418760e-002	0.0	6.515000e-001	4.301410e-002	0.0	6.664700e-001	4.175019e-002	0.0	6.812700e-001	4.038146e-002	0.0	6.958900e-001	3.889452e-002	0.0	7.103200e-001	3.727893e-002	0.0	7.245300e-001	3.553093e-002	0.0	7.385200e-001	3.364866e-002	0.0	7.522800e-001	3.163737e-002	0.0	7.657800e-001	2.951220e-002	0.0	7.790100e-001	2.729244e-002	0.0	7.919700e-001	2.500205e-002	0.0	8.046400e-001	2.267420e-002	0.0	8.170100e-001	2.034488e-002	0.0	8.290500e-001	1.805668e-002	0.0	8.407700e-001	1.584497e-002	0.0	8.521600e-001	1.374675e-002	0.0	8.631800e-001	1.179908e-002	0.0	8.738500e-001	1.002014e-002	0.0	8.841500e-001	8.425064e-003	0.0	8.940600e-001	7.017674e-003	0.0	9.035800e-001	5.789455e-003	0.0	9.127000e-001	4.728346e-003	0.0	9.214000e-001	3.824068e-003	0.0	9.296900e-001	3.069774e-003	0.0	9.375400e-001	2.471245e-003	0.0	9.449600e-001	2.035908e-003	0.0	9.519400e-001	1.768323e-003	0.0	9.584700e-001	1.655867e-003	0.0	9.645400e-001	1.660724e-003	0.0	9.701500e-001	1.722646e-003	0.0	9.752800e-001	1.772873e-003	0.0	9.799500e-001	1.754404e-003	0.0	9.841300e-001	1.637896e-003	0.0	9.878400e-001	1.426011e-003	0.0	9.910500e-001	1.149713e-003	0.0	9.937800e-001	8.485832e-004	0.0	9.960200e-001	5.626704e-004	0.0	9.977600e-001	3.224605e-004	0.0	9.990000e-001	1.450122e-004	0.0	9.997500e-001	3.632514e-005	0.0	1.000000e+000	0.000000e+000	0.0	1.984229e+001	2.506660e+000	0.0	1.937166e+001	4.973800e+000	0.0	1.859553e+001	7.362490e+000	0.0	1.752613e+001	9.635070e+000	0.0	1.618034e+001	1.175571e+001	0.0	1.457937e+001	1.369094e+001	0.0	1.274848e+001	1.541027e+001	0.0	1.071654e+001	1.688656e+001	0.0	8.515590e+000	1.809654e+001	0.0	6.180340e+000	1.902113e+001	0.0	3.747630e+000	1.964575e+001	0.0	1.255810e+000	1.996053e+001	0.0	-1.255810e+000	1.996053e+001	0.0	-3.747630e+000	1.964574e+001	0.0	-6.180340e+000	1.902113e+001	0.0	-8.515590e+000	1.809654e+001	0.0	-1.071654e+001	1.688656e+001	0.0	-1.274848e+001	1.541026e+001	0.0	-1.457937e+001	1.369094e+001	0.0	-1.618034e+001	1.175570e+001	0.0	-1.752613e+001	9.635070e+000	0.0	-1.859553e+001	7.362490e+000	0.0	-1.937166e+001	4.973800e+000	0.0	-1.984229e+001	2.506660e+000	0.0	-2.000000e+001	0.000000e+000	0.0	-1.984229e+001	-2.506670e+000	0.0	-1.937166e+001	-4.973800e+000	0.0	-1.859553e+001	-7.362490e+000	0.0	-1.752613e+001	-9.635080e+000	0.0	-1.618034e+001	-1.175571e+001	0.0	-1.457937e+001	-1.369094e+001	0.0	-1.274848e+001	-1.541027e+001	0.0	-1.071653e+001	-1.688656e+001	0.0	-8.515580e+000	-1.809654e+001	0.0	-6.180340e+000	-1.902113e+001	0.0	-3.747620e+000	-1.964575e+001	0.0	-1.255810e+000	-1.996053e+001	0.0	1.255810e+000	-1.996053e+001	0.0	3.747630e+000	-1.964574e+001	0.0	6.180340e+000	-1.902113e+001	0.0	8.515590e+000	-1.809654e+001	0.0	1.071654e+001	-1.688656e+001	0.0	1.274848e+001	-1.541026e+001	0.0	1.457937e+001	-1.369094e+001	0.0	1.618034e+001	-1.175570e+001	0.0	1.752614e+001	-9.635070e+000	0.0	1.859553e+001	-7.362490e+000	0.0	1.937166e+001	-4.973790e+000	0.0	1.984229e+001	-2.506660e+000	0.0	2.000000e+001	0.000000e+000	0.0	6.105045e-002	-4.036390e-002	0.0	6.598637e-001	-4.682764e-002	0.0	4.260198e-001	7.108102e-002	0.0	6.900426e-001	5.270153e-002	0.0	3.793364e-001	-6.077663e-002	0.0	9.994611e-001	-6.992467e-004	0.0	9.985514e-001	-1.280521e-003	0.0	7.734977e-001	-3.941705e-002	0.0	6.894970e-001	-4.518694e-002	0.0	-1.584943e-003	7.244207e-003	0.0	7.464262e-001	-4.160931e-002	0.0	5.836223e-001	6.204407e-002	0.0	9.927793e-001	-3.491744e-003	0.0	9.898676e-001	-4.318270e-003	0.0	5.991839e-001	6.094156e-002	0.0	7.183925e-001	-4.348445e-002	0.0	-1.605818e-003	9.552767e-004	0.0	9.864594e-001	-5.187028e-003	0.0	9.825651e-001	-6.078571e-003	0.0	-1.379329e-003	-5.874945e-003	0.0	6.448092e-001	-4.765343e-002	0.0	8.242514e-001	-3.371868e-002	0.0	7.994726e-001	-3.681148e-002	0.0	3.489181e-001	7.386617e-002	0.0	8.476888e-001	-3.021353e-002	0.0	2.475688e-001	7.414974e-002	0.0	8.697187e-001	-2.644568e-002	0.0	9.664587e-003	2.474590e-002	0.0	8.902354e-001	-2.266131e-002	0.0	7.734203e-002	-4.413554e-002	0.0	9.091759e-001	-1.910576e-002	0.0	-1.952437e-003	-2.883929e-003	0.0	9.420706e-001	-1.323011e-002	0.0	9.264750e-001	-1.594375e-002	0.0	1.816257e-002	-2.463395e-002	0.0	4.259109e-001	-5.927255e-002	0.0	8.588891e-001	-2.834587e-002	0.0	9.559270e-001	-1.091913e-002	0.0	9.781793e-001	-7.003567e-003	0.0	9.679870e-001	-8.884223e-003	0.0	1.585879e-001	-5.554947e-002	0.0	8.999088e-001	-2.084224e-002	0.0	7.600930e-001	-4.056013e-002	0.0	9.971301e-001	-2.001966e-003	0.0	5.988660e-001	-5.021470e-002	0.0	4.415952e-001	-5.863032e-002	0.0	5.363017e-001	-5.378115e-002	0.0	4.731233e-001	-5.717254e-002	0.0	5.047287e-001	-5.553363e-002	0.0	4.889159e-001	-5.637104e-002	0.0	1.252797e-001	-5.195867e-002	0.0	2.809685e-002	-2.950789e-002	0.0	3.947691e-001	-6.035155e-002	0.0	4.651053e-002	-3.626
[...]
POINT_DATA 5233

SCALARS Density float 1
LOOKUP_TABLE default
1.171974e+000	1.145481e+000	1.128093e+000	1.113017e+000	1.099558e+000	1.087855e+000	1.078178e+000	1.071387e+000	1.067860e+000	1.067398e+000	1.069188e+000	1.072052e+000	1.074850e+000	1.076688e+000	1.077029e+000	1.075587e+000	1.072175e+000	1.066662e+000	1.058918e+000	1.048887e+000	1.036650e+000	1.022486e+000	1.006850e+000	9.904105e-001	9.739512e-001	9.585268e-001	9.452095e-001	9.350385e-001	9.286489e-001	9.261659e-001	9.271951e-001	9.309020e-001	9.363776e-001	9.427289e-001	9.492690e-001	9.554695e-001	9.609461e-001	9.655031e-001	9.689803e-001	9.713671e-001	9.726357e-001	9.728488e-001	9.720466e-001	9.703234e-001	9.677569e-001	9.644536e-001	9.605121e-001	9.560372e-001	9.511142e-001	9.458189e-001	9.402236e-001	9.344188e-001	9.284976e-001	9.225511e-001	9.166078e-001	9.107266e-001	9.049364e-001	8.993173e-001	8.939063e-001	8.887404e-001	8.838609e-001	8.792750e-001	8.750097e-001	8.710454e-001	8.674223e-001	8.641480e-001	8.613056e-001	8.589081e-001	8.569683e-001	8.554001e-001	8.541909e-001	8.533994e-001	8.531965e-001	8.536280e-001	8.546970e-001	8.563545e-001	8.587434e-001	8.620496e-001	8.663272e-001	8.716105e-001	8.779966e-001	8.855200e-001	8.942903e-001	9.043613e-001	9.158633e-001	9.289974e-001	9.438769e-001	9.607101e-001	9.798077e-001	1.001403e+000	1.026069e+000	1.054450e+000	1.087076e+000	1.125040e+000	1.168917e+000	1.217796e+000	1.267912e+000	1.322793e+000	1.346751e+000	1.349766e+000	1.353844e+000	1.337860e+000	1.293799e+000	1.244877e+000	1.188982e+000	1.133162e+000	1.080065e+000	1.031161e+000	9.868681e-001	9.473986e-001	9.123755e-001	8.811565e-001	8.533936e-001	8.285503e-001	8.063267e-001	7.865261e-001	7.687238e-001	7.524971e-001	7.376546e-001	7.240534e-001	7.117398e-001	7.008659e-001	6.914066e-001	6.828961e-001	6.748438e-001	6.670886e-001	6.600562e-001	6.538792e-001	6.483333e-001	6.430249e-001	6.379325e-001	6.332310e-001	6.291644e-001	6.257391e-001	6.228906e-001	6.204639e-001	6.183406e-001	6.164749e-001	6.147702e-001	6.132381e-001	6.118963e-001	6.108897e-001	6.103691e-001	6.102788e-001	6.104700e-001	6.108646e-001	6.115112e-001	6.125137e-001	6.138619e-001	6.156345e-001	6.175410e-001	6.194837e-001	6.214386e-001	6.238281e-001	6.277810e-001	6.280206e-001	6.224640e-001	6.172593e-001	7.020669e-001	8.976303e-001	9.840487e-001	9.748931e-001	9.606725e-001	9.597331e-001	9.626504e-001	9.665009e-001	9.727580e-001	9.817166e-001	9.924889e-001	1.004502e+000	1.017189e+000	1.030005e+000	1.042497e+000	1.054223e+000	1.064835e+000	1.074069e+000	1.081737e+000	1.087864e+000	1.092568e+000	1.096176e+000	1.099078e+000	1.101654e+000	1.103991e+000	1.105788e+000	1.106220e+000	1.104176e+000	1.098576e+000	1.088889e+000	1.075744e+000	1.061448e+000	1.049500e+000	1.043481e+000	1.045765e+000	1.056051e+000	1.071567e+000	1.089655e+000	1.108502e+000	1.128638e+000	1.150001e+000	1.145294e+000	9.988271e-001	9.996230e-001	9.996835e-001	9.995233e-001	9.994036e-001	9.992553e-001	9.990812e-001	9.988668e-001	9.986352e-001	9.984766e-001	9.983924e-001	9.984819e-001	9.987018e-001	9.991195e-001	9.994710e-001	9.997618e-001	9.999310e-001	1.000041e+000	1.000117e+000	1.000154e+000	1.000179e+000	1.000191e+000	1.000203e+000	1.000214e+000	1.000224e+000	1.000238e+000	1.000260e+000	1.000288e+000	1.000327e+000	1.000386e+000	1.000452e+000	1.000564e+000	1.000674e+000	1.000865e+000	1.001048e+000	1.001281e+000	1.001532e+000	1.001644e+000	1.001684e+000	1.001561e+000	1.001417e+000	1.001205e+000	1.001008e+000	1.000816e+000	1.000644e+000	1.000443e+000	1.000283e+000	1.000279e+000	9.994433e-001	9.983084e-001	9.140066e-001	9.697507e-001	6.121838e-001	9.701805e-001	9.050160e-001	1.149953e+000	1.136007e+000	9.345156e-001	9.636473e-001	1.317622e+000	9.431741e-001	6.300594e-001	1.095747e+000	1.085915e+000	6.273827e-001	9.541842e-001	1.348568e+000	1.078112e+000	1.072852e+000	1.307207e+000	9.713575e-001	9.468784e-001	9.341209e-001	6.164321e-001	9.714296e-001	6.341946e-001	1.000979e+000	1.090365e+000	1.028831e+000	8.941484e-001	1.050855e+000	1.336807e+000	1.072356e+000	1.065302e+000	1.041173e+000	9.217726e-001	9.860565e-001	1.073200e+000	1.070141e+000	1.070569e+000	8.599663e-001	1.040739e+000	9.382129e-001	1.120423e+000	9.704801e-001	9.274351e-001	9.584089e-001	9.386621e-001	9.492051e-001	9.440709e-001	8.657601e-001	9.930923e-001	9.105142e-001	9.398668e-001	9.161114e-001	8.851805e-001	8.945942e-001	9.731477e-001	8.769589e-001	1.069696e+000	8.612182e-001	8.602373e-001	8.861995e-001	8.737977e-001	9.657369e-001	8.594065e-001	9.716777e-001	1.015442e+000	1.015614e+000	1.107354e+000	1.139923e+000	1.002613e+000	1.059043e+000	1.073439e+000	1.069634e+000	1.281459e+000	9.580555e-001	8.671493e-001	9.623547e-001	9.486849e-001	9.328847e-001	8.692583e-001	8.628084e-001	9.684816e-001	9.671805e-001	9.261176e-001	1.180855e+000	1.070119e+000	8.996947e-001	8.595574e-001	1.186617e+000	8.647426e-001	8.794435e-001	8.809102e-001	8.700354e-001	9.330905e-001	9.592734e-001	1.345712e+000	1.268354e+000	6.207086e-001	1.345603e+000	9.293699e-001	8.213392e-001	8.696415e-001	7.107305e-001	6.123272e-001	1.101449e+000	6.186817e-001	6.136236e-001	1.070184e+000	1.089617e+000	1.086923e+000	6.149488e-001	6.123214e-001	6.135714e-001	1.099220e+000	1.094327e+000	7.650000e-001	1.060731e+000	1.096171e+000	1.101240e+000	7.349933e-001	8.007504e-001	6.248298e-001	6.305882e-001	6.670321e-001	6.202754e-001	6.127786e-001	6.127676e-001	6.826189e-001	7.006551e-001	6.317241e-001	6.543812e-001	6.432827e-001	9.892559e-001	6.265624e-001	9.760834e-001	9.682704e-001	1.014282e+000	9.925011e-001	1.058462e+000	1.037382e+000	1.091048e+000	1.075274e+000	1.099924e+000	1.097021e+000	1.080547e+000	1.067501e+000	1.081728e+000	1.025884e+000	1.048346e+000	9.833129e-001	1.003017e+000	9.659205e-001	9.713936e-001	8.123607e-001	9.883283e-001	6.229636e-001	6.203522e-001	6.486710e-001	6.384544e-001	6.744412e-001	6.604707e-001	8.441825e-001	6.914462e-001	1.044738e+000	8.979710e-001	8.613360e-001	1.188042e+000	1.072036e+000	9.387487e-001	8.897418e-001	9.540091e-001	1.237272e+000	9.641389e-001	1.138526e+000	7.493383e-001	7.820581e-001	6.274949e-001	7.221074e-001	1.054783e+000	1.054419e+000	6.224511e-001	1.060383e+000	1.071329e+000	6.183027e-001	6.148114e-001	1.100778e+000	1.163803e+000	1.118884e+000	1.135165e+000	9.719788e-001	9.554792e-001	1.085560e+000	6.166086e-001	1.224929e+000	1.103018e+000	9.033817e-001	8.631429e-001	8.733147e-001	7.968542e-001	1.294203e+000	1.324748e+000	8.797843e-001	9.622209e-001	1.051549e+000	1.141909e+000	6.284494e-001	9.655796e-001	9.400581e-001	1.084385e+000	8.915107e-001	9.835607e-001	9.596776e-001	8.951355e-001	1.286718e+000	8.678946e-001	1.078064e+000	1.070778e+000	8.685268e-001	9.581696e-001	9.699969e-001	9.322636e-001	9.034150e-001	9.109361e-001	1.033320e+000	9.406456e-001	1.134457e+000	1.012007e+000	9.960248e-001	1.052491e+000	7.348726e-001	9.791238e-001	6.838134e-001	1.075407e+000	1.065327e+000	6.226205e-001	6.183409e-001	1.093171e+000	1.080899e+000	1.071971e+000	1.088979e+000	1.064162e+000	6.454377e-001	6.250656e-001	6.504383e-001	7.481206e-001	9.682248e-001	8.669771e-001	1.091622e+000	7.016513e-001	8.599885e-001	1.076014e+000	1.082179e+000	1.085386e+000	8.670680e-001	1.179223e+000	1.108064e+000	1.094360e+000	1.177854e+000	1.261080e+000	1.177719e+000	1.336043e+000	1.341172e+000	1.050446e+000	1.189457e+000	9.238848e-001	1.124899e+000	1.101746e+000	6.151144e-001	9.604024e-001	1.078195e+000	1.009709e+000	6.304132e-001	1.092235e+000	1.318030e+000	9.269129e-001	6.160268e-001	9.709314e-001	6.335760e-001	9.966894e-001	1.022035e+000	9.129648e-001	1.043198e+000	1.058297e+000	1.069370e+000	1.003664e+000	1.070498e+000	1.070666e+000	1.074012e+000	8.736281e-001	9.450338e-001	9.417721e-001	1.112641e+000	9.375509e-001	9.427341e-001	9.476557e-001	1.025861e+000	9.162186e-001	9.215789e-001	8.960251e-001	9.660989e-001	1.063448e+000	1.067095e+000	8.707098e-001	8.880482e-001	9.637903e-001	9.703364e-001	1.070734e+000	1.071648e+000	9.537484e-001	9.492258e-001	8.821751e-001	8.773959e-001	9.666426e-001	9.688324e-001	9.503851e-001	9.363498e-001	1.108433e+000	9.007765e-001	9.057623e-001	8.664644e-001	8.664669e-001	8.693274e-001	8.712326e-001	8.833696e-001	8.873053e-001	8.736662e-001	1.340751e+000	1.215708e+000	8.850548e-001	1.062516e+000	6.201683e-001	6.166239e-001	6.155271e-001	6.147541e-001	1.069178e+000	1.083040e+000	1.094079e+000	6.144373e-001	6.145713e-001	6.172635e-001	1.091867e+000	1.095495e+000	8.160241e-001	8.370307e-001	6.410318e-001	6.370448e-001	6.922607e-001	7.121236e-001	7.230481e-001	1.012367e+000	9.801947e-001	9.769272e-001	1.002626e+000	1.043031e+000	1.088986e+000	1.068800e+000	1.061124e+000	1.033033e+000	1.022666e+000	9.935932e-001	9.859664e-001	9.750918e-001	9.736183e-001	9.518991e-001	7.139013e-001	6.259239e-001	6.226619e-001	6.264538e-001	6.178580e-001	6.559124e-001	6.621394e-001	6.688726e-001	6.761821e-001	1.050724e+000	9.126788e-001	9.431813e-001	9.440523e-001	9.505028e-001	9.522710e-001	9.565253e-001	1.221109e+000	9.762989e-001	7.629112e-001	7.791783e-001	6.276153e-001	6.304372e-001	6.187262e-001	6.204965e-001	1.096176e+000	1.095585e+000	9.710375e-001	9.709599e-001	9.837625e-001	1.252904e+000	8.765116e-001	1.296760e+000	9.168003e-001	8.864135e-001	9.474260e-001	9.589068e-001	1.051971e+000	1.074066e+000	1.069691e+000	1.083304e+000	1.207323e+000	1.081576e+000	1.121800e+000	1.141237e+000	1.116085e+000	1.168588e+000	1.058824e+000	1.321258e+000	9.044921e-001	1.057531e+000	1.089783e+000	6.289177e-001	1.138646e+000	1.174737e+000	9.615257e-001	1.239698e+000	9.581096e-001	1.084531e+000	1.005677e+000	1.142872e+000	8.979854e-001	9.940813e-001	9.645864e-001	1.097975e+000	1.112818e+000	1.070003e+000	6.205804e-001	1.089862e+000	9.956125e-001	1.090641e+000	6.191619e-001	6.441812e-001	6.302029e-001	7.035568e-001	8.320993e-001	1.133001e+000	1.266322e+000	1.270431e+000	1.056552e+000	1.301605e+000	1.069446e+000	9.130366e-001	1.334394e+000	8.759374e-001	9.368654e-001	1.035292e+000	1.131512e+000	1.047499e+000	1.011548e+000	9.897239e-001	1.068348e+000	1.087196e+000	1.079610e+000	1.074895e+000	6.332543e-001	6.401278e-001	6.585613e-001	7.627810e-001	9.689321e-001	9.670658e-001	8.738464e-001	1.093690e+000	7.129482e-001	1.073779e+000	1.099945e+000	1.169797e+000	1.242564e+000	1.207488e+000	1.316291e+000	1.013560e+000	1.158005e+000	1.146960e+000	1.070402e+000	1.083197e+000	6.291259e-001	9.318950e-001	6.196305e-001	9.717159e-001	9.825977e-001	1.016858e+000	1.027380e+000	9.340298e-001	9.228688e-001	1.036775e+000	1.045052e+000	1.067097e+000	1.068489e+000	1.078001e+000	9.485015e-001	9.471465e-001	1.106925e+000	9.417967e-001	9.465434e-001	9.218741e-001	9.268639e-001	9.941063e-001	1.061849e+000	1.064950e+000	8.817637e-001	8.784834e-001	9.622124e-001	9.650864e-001	1.071856e+000	1.074260e+000	9.545407e-001	9.512461e-001	8.971620e-001	8.908314e-001	8.857247e-001	9.673747e-001	9.691056e-001	9.768134e-001	9.610261e-001	9.467130e-001	9.023587e-001	9.070020e-001	9.118118e-001	8.744897e-001	8.737373e-001	8.735698e-001	8.747206e-001	8.760773e-001	8.899890e-001	8.938200e-001	8.780149e-001	9.010127e-001	6.178952e-001	6.173165e-001	1.078559e+000	6.171800e-001	6.174650e-001	6.182831e-001	6.213126e-001	1.088878e+000	8.532995e-001	8.763440e-001	6.484843e-001	6.534084e-001	7.237420e-001	7.363282e-001	7.493362e-001	9.851070e-001	1.086563e+000	1.083421e+000	1.069331e+000	1.062849e+000	1.055697e+000	1.038742e+000	1.029756e+000	1.020583e+000	1.003228e+000	9.954691e-001	9.894256e-001	9.830159e-001	9.811876e-001	9.804166e-001	8.732525e-001	6.255058e-001	6.231607e-001	6.611709e-001	6.191395e-001	6.244611e-001	6.643710e-001	6.706303e-001	6.780109e-001	6.860316e-001	6.947677e-001	9.274804e-001	9.565942e-001	9.499528e-001	9.550152e-001	9.623220e-001	9.510072e-001	9.551240e-001	9.882634e-001	1.021409e+000	7.777419e-001	7.944419e-001	8.125534e-001	6.365678e-001	6.233156e-001	6.253482e-001	6.275806e-001	1.091199e+000	1.091355e+000	1.090560e+000	9.701046e-001	9.704676e-001	9.700326e-001	8.803785e-001	8.832338e-001	1.275599e+000	9.140981e-001	1.094815e+000	1.072381e+000	9.609348e-001	1.299868e+000	1.125138e+000	1.052133e+000	1.056886e+000	1.022168e+000	1.080889e+000	6.216169e-001	1.248176e+000	1.093792e+000	1.168757e+000	1.082283e+000	1.087399e+000	1.249358e+000	9.699669e-001	1.224100e+000	1.144764e+000	1.161253e+000	9.551457e-001	8.844316e-001	1.065508e+000	9.229069e-001	9.229090e-001	9.368202e-001	8.936898e-001	1.073042e+000	6.288324e-001	1.084660e+000	1.086215e+000	1.011153e+000	7.270688e-001	6.581846e-001	1.087524e+000	8.690655e-001	1.003637e+000	1.109714e+000	1.075893e+000	1.109400e+000	1.071207e+000	1.088894e+000	9.642544e-001	1.197212e+000	9.620556e-001	9.588550e-001	1.114541e+000	1.094205e+000	1.141386e+000	1.042865e+000	6.220638e-001	6.442790e-001	1.278153e+000	1.127234e+000	1.001964e+000	1.073596e+000	6.406653e-001	6.487000e-001	6.529875e-001	9.682879e-001	9.666869e-001	1.073643e+000	1.160207e+000	1.193198e+000	1.224828e+000	1.296006e+000	1.043049e+000	1.069216e+000	1.081896e+000	6.268836e-001	9.834981e-001	9.932708e-001	1.013594e+000	1.023066e+000	9.440887e-001	9.328631e-001	1.031732e+000	1.039600e+000	1.046389e+000	1.065646e+000	1.067497e+000	9.529397e-001	9.544703e-001	1.101635e+000	9.414484e-001	9.459947e-001	9.274859e-001	9.321947e-001	1.060639e+000	1.063417e+000	8.907168e-001	8.867165e-001	9.637919e-001	1.073796e+000	1.077317e+000	9.569175e-001	9.546456e-001	9.064329e-001	9.000227e-001	8.950438e-001	9.662555e-001	9.680382e-001	1.004022e+000	9.869654e-001	9.709059e-001	9.565805e-001	9.048032e-001	9.090816e-001	9.134701e-001	9.180874e-001	8.828743e-001	8.819481e-001	8.814228e-001	8.816261e-001	8.823143e-001	9.008675e-001	8.970684e-001	8.837004e-001	6.210744e-001	1.076202e+000	1.079300e+000	6.212420e-001	6.217301e-001	6.228728e-001	6.243275e-001	6.265598e-001	8.920350e-001	9.166879e-001	6.631942e-001	6.692631e-001	7.377941e-001	7.502143e-001	7.644579e-001	7.791701e-001	1.083475e+000	1.080805e+000	1.077717e+000	1.068920e+000	1.063458e+000	1.057525e+000	1.049694e+000	1.035497e+000	1.026726e+000	1.018727e+000	1.003543e+000	9.974644e-001	9.913481e-001	9.877697e-001	9.847899e-001	9.875264e-001	9.928307e-001	6.242874e-001	6.261793e-001	7.814228e-001	6.494728e-001	6.270199e-001	6.189445e-001	6.750136e-001	6.819140e-001	6.887310e-001	6.972688e-001	7.061842e-001	7.163362e-001	9.419639e-001	9.686452e-001	9.604300e-001	9.665702e-001	9.742854e-001	9.503354e-001	9.538563e-001	9.575686e-001	9.983618e-001	1.029361e+000	1.060560e+000	7.940967e-001	8.104010e-001	8.287988e-001	8.483324e-001	6.288396e-001	6.316623e-001	6.342848e-001	6.371137e-001	1.085244e+000	1.086774e+000	1.086534e+000	9.693900e-001	9.699877e-001	9.700889e-001	9.695113e-001	8.854771e-001	8.878458e-001	8.905159e-001	1.115226e+000	1.091998e+000	1.069865e+000	1.137611e+000	1.139228e+000	9.624129e-001	9.240851e-001	1.163150e+000	1.074573e+000	1.211465e+000	1.049503e+000	8.937490e-001	7.544907e-001	1.123457e+000	1.207905e+000	1.274804e+000	1.313939e+000	1.314005e+000	1.306208e+000	1.232132e+000	1.105616e+000	6.533735e-001	1.072689e+000	1.090927e+000	1.056024e+000	9.628928e-001	9.288413e-001	1.084948e+000	1.080526e+000	1.082028e+000	6.285351e-001	6.263108e-001	9.417198e-001	1.006443e+000	6.252586e-001	9.610936e-001	6.475629e-001	1.080423e+000	9.330493e-001	1.126517e+000	1.075040e+000	1.306027e+000	1.153457e+000	1.142172e+000	1.052520e+000	1.030707e+000	1.254868e+000	1.093623e+000	1.187483e+000	1.080252e+000	1.230778e+000	1.139866e+000	1.147142e+000	1.092490e+000	9.035494e-001	9.009614e-001	1.076967e+000	6.263119e-001	1.081548e+000	1.085210e+000	9.660472e-001	1.255095e+000	6.565398e-001	6.633571e-001	6.670430e-001	9.688757e-001	1.152229e+000	1.180738e+000	1.272466e+000	1.071135e+000	9.942678e-001	1.002021e+000	1.011359e+000	1.019974e+000	9.430335e-001	9.548220e-001	1.028029e+000	1.035535e+000	1.041572e+000	1.047968e+000	1.065063e+000	1.067413e+000	9.593434e-001	1.096936e+000	9.410770e-001	9.455265e-001	9.323687e-001	9.369773e-001	1.059992e+000	1.062581e+000	8.994600e-001	8.944775e-001	1.076134e+000	1.080309e+000	9.602173e-001	9.159737e-001	9.084411e-001	9.054322e-001	9.661974e-001	1.013267e+000	9.964504e-001	9.806961e-001	9.674572e-001	9.078113e-001	9.110134e-001	9.156032e-001	9.192626e-001	9.241067e-001	8.906161e-001	8.905892e-001	8.886380e-001	8.897634e-001	8.893277e-001	1.075279e+000	1.076779e+000	1.078566e+000	6.253014e-001	6.269048e-001	6.274282e-001	6.300915e-001	6.313386e-001	9.076321e-001	9.317186e-001	6.748756e-001	6.791874e-001	7.631317e-001	7.798075e-001	7.960895e-001	1.077346e+000	1.075493e+000	1.071152e+000	1.067979e+000	1.062349e+000	1.058027e+000	1.050917e+000	1.041332e+000	1.031295e+000	1.019554e+000	9.934668e-001	9.891605e-001	1.010363e+000	6.718950e-001	6.267386e-001	6.881310e-001	6.928945e-001	7.030159e-001	7.085333e-001	7.204439e-001	7.304882e-001	7.420731e-001	9.562885e-001	9.808585e-001	9.706579e-001	9.764899e-001	9.852229e-001	9.501633e-001	9.549604e-001	1.007314e+000	1.036461e+000	1.064675e+000	8.119788e-001	8.281096e-001	8.457958e-001	8.662325e-001	8.866451e-001	6.350280e-001	6.370450e-001	6.415259e-001	6.450783e-001	1.082134e+000	1.080671e+000	9.691948e-001	9.700583e-001	8.915258e-001	8.923122e-001	8.953936e-001	8.972029e-001	1.132045e+000	1.116727e+000	1.156943e+000	1.283330e+000	1.152539e+000	1.074406e+000	1.079803e+000	1.234523e+000	1.076672e+000	1.109135e+000	1.082816e+000	1.252702e+000	1.055345e+000	1.135829e+000	6.586181e-001	1.137930e+000	1.144540e+000	1.213361e+000	1.114815e+000	1.071018e+000	9.588340e-001	1.077275e+000	9.086438e-001	1.056092e+000	1.050570e+000	9.699063e-001	9.340424e-001	9.004099e-001	1.216513e+000	9.353609e-001	9.544748e-001	9.442327e-001	7.876288e-001	1.075123e+000	1.074684e+000	1.252798e+000	1.119074e+000	1.068036e+000	1.131738e+000	1.075673e+000	1.310457e+000	1.235489e+000	1.087797e+000	9.650789e-001	6.302344e-001	6.308084e-001	1.083253e+000	1.139678e+000	1.095637e+000	1.282557e+000	1.146783e+000	1.038298e+000	1.198177e+000	1.177889e+000	6.311113e-001	1.074679e+000	1.077446e+000	1.077247e+000	6.300558e-001	6.690461e-001	6.813183e-001	9.667165e-001	1.169210e+000	1.192606e+000	1.095150e+000	1.006104e+000	1.020914e+000	9.651051e-001	1.034696e+000	1.044064e+000	1.065222e+000	1.093210e+000	9.427251e-001	1.059830e+000	1.062447e+000	9.056269e-001	1.078305e+000	9.648353e-001	9.671349e-001	9.221956e-001	9.142877e-001	9.640520e-001	1.021751e+000	1.004601e+000	9.891450e-001	9.796462e-001	9.154304e-001	9.228483e-001	9.298364e-001	8.972606e-001	8.967824e-001	1.075307e+000	1.075935e+000	6.340288e-001	6.389284e-001	9.450756e-001	6.953227e-001	8.123563e-001	1.024741e+000	1.070038e+000	1.062788e+000	1.053660e+000	1.043725e+000	1.034535e+000	1.013782e+000	1.001042e+000	9.895257e-001	1.000824e+000	1.007221e+000	8.292554e-001	6.403305e-001	6.200465e-001	7.112063e-001	7.286518e-001	7.464866e-001	7.547753e-001	7.706026e-001	9.696857e-001	9.926665e-001	9.734508e-001	9.827928e-001	9.950035e-001	9.493478e-001	9.539593e-001	1.015820e+000	1.041865e+000	1.068118e+000	1.093215e+000	8.305288e-001	8.466688e-001	8.635113e-001	8.830029e-001	9.061789e-001	9.216390e-001	6.451761e-001	6.525510e-001	1.078192e+000	1.076678e+000	9.679549e-001	9.701014e-001	9.688556e-001	8.988606e-001	9.029801e-001	1.087012e+000	1.134171e+000	1.128360e+000	1.101305e+000	1.005924e+000	1.081393e+000	1.134566e+000	1.104986e+000	1.168744e+000	1.114117e+000	1.115159e+000	1.098041e+000	1.158854e+000	1.232298e+000	1.233922e+000	1.074097e+000	9.693380e-001	6.670636e-001	1.092342e+000	1.039118e+000	1.077625e+000	9.478497e-001	1.137621e+000	1.150759e+000	9.357485e-001	1.056755e+000	9.705530e-001	9.621598e-001	1.072436e+000	1.076112e+000	1.060469e+000	1.045808e+000	1.132166e+000	1.076656e+000	1.078573e+000	1.073971e+000	6.899523e-001	6.225765e-001	9.697712e-001	9.742533e-001	1.113292e+000	1.119517e+000	1.289599e+000	1.069037e+000	1.073945e+000	1.146899e+000	1.080221e+000	1.215791e+000	1.132122e+000	9.574311e-001	1.218140e+000	9.666107e-001	9.538918e-001	1.075319e+000	1.262725e+000	1.065928e+000	1.084627e+000	9.690287e-001	1.260597e+000	1.146760e+000	9.881949e-001	1.202172e+000	1.185964e+000	6.