# vtk DataFile Version 3.0
vtk output
ASCII
DATASET UNSTRUCTURED_GRID
POINTS 5233 float
9.997500e-001	-3.632309e-005	0.0	9.990000e-001	-1.448833e-004	0.0	9.977600e-001	-3.210537e-004	0.0	9.960200e-001	-5.551427e-004	0.0	9.937800e-001	-8.217632e-004	0.0	9.910500e-001	-1.077110e-003	0.0	9.878400e-001	-1.265859e-003	0.0	9.841300e-001	-1.337141e-003	0.0	9.799500e-001	-1.265539e-003	0.0	9.752800e-001	-1.076156e-003	0.0	9.701500e-001	-8.544053e-004	0.0	9.645400e-001	-7.292909e-004	0.0	9.584700e-001	-8.430626e-004	0.0	9.519400e-001	-1.309052e-003	0.0	9.449600e-001	-2.183129e-003	0.0	9.375400e-001	-3.456839e-003	0.0	9.296900e-001	-5.072416e-003	0.0	9.214000e-001	-6.952892e-003	0.0	9.127000e-001	-9.011603e-003	0.0	9.035800e-001	-1.118374e-002	0.0	8.940600e-001	-1.341374e-002	0.0	8.841500e-001	-1.566150e-002	0.0	8.738500e-001	-1.789707e-002	0.0	8.631800e-001	-2.009017e-002	0.0	8.521600e-001	-2.221380e-002	0.0	8.407700e-001	-2.425202e-002	0.0	8.290500e-001	-2.618289e-002	0.0	8.170100e-001	-2.799720e-002	0.0	8.046400e-001	-2.969564e-002	0.0	7.919700e-001	-3.128019e-002	0.0	7.790100e-001	-3.276179e-002	0.0	7.657800e-001	-3.415449e-002	0.0	7.522800e-001	-3.547679e-002	0.0	7.385200e-001	-3.674657e-002	0.0	7.245300e-001	-3.797912e-002	0.0	7.103200e-001	-3.918962e-002	0.0	6.958900e-001	-4.039128e-002	0.0	6.812700e-001	-4.159171e-002	0.0	6.664700e-001	-4.279697e-002	0.0	6.515000e-001	-4.401004e-002	0.0	6.363800e-001	-4.523030e-002	0.0	6.211300e-001	-4.645473e-002	0.0	6.057600e-001	-4.767914e-002	0.0	5.902800e-001	-4.889783e-002	0.0	5.747100e-001	-5.010321e-002	0.0	5.590600e-001	-5.128775e-002	0.0	5.433600e-001	-5.244213e-002	0.0	5.276100e-001	-5.355918e-002	0.0	5.118400e-001	-5.462980e-002	0.0	4.960500e-001	-5.564733e-002	0.0	4.802700e-001	-5.660364e-002	0.0	4.645100e-001	-5.749254e-002	0.0	4.487800e-001	-5.830838e-002	0.0	4.331100e-001	-5.904522e-002	0.0	4.175000e-001	-5.969919e-002	0.0	4.019700e-001	-6.026609e-002	0.0	3.865400e-001	-6.074237e-002	0.0	3.712300e-001	-6.112510e-002	0.0	3.560400e-001	-6.141224e-002	0.0	3.409900e-001	-6.160160e-002	0.0	3.261100e-001	-6.169142e-002	0.0	3.114000e-001	-6.168054e-002	0.0	2.968700e-001	-6.156778e-002	0.0	2.825500e-001	-6.135247e-002	0.0	2.684500e-001	-6.103411e-002	0.0	2.545700e-001	-6.061198e-002	0.0	2.409400e-001	-6.008649e-002	0.0	2.275700e-001	-5.945780e-002	0.0	2.144700e-001	-5.872630e-002	0.0	2.016600e-001	-5.789326e-002	0.0	1.891400e-001	-5.695898e-002	0.0	1.769300e-001	-5.592544e-002	0.0	1.650400e-001	-5.479427e-002	0.0	1.534900e-001	-5.356848e-002	0.0	1.422900e-001	-5.225063e-002	0.0	1.314400e-001	-5.084218e-002	0.0	1.209500e-001	-4.934586e-002	0.0	1.108500e-001	-4.776786e-002	0.0	1.011300e-001	-4.610863e-002	0.0	9.181000e-002	-4.437344e-002	0.0	8.290000e-002	-4.256627e-002	0.0	7.440000e-002	-4.068899e-002	0.0	6.633000e-002	-3.874789e-002	0.0	5.869000e-002	-3.674478e-002	0.0	5.149000e-002	-3.468379e-002	0.0	4.474000e-002	-3.256930e-002	0.0	3.844000e-002	-3.040246e-002	0.0	3.260000e-002	-2.818749e-002	0.0	2.723000e-002	-2.592922e-002	0.0	2.232000e-002	-2.362346e-002	0.0	1.790000e-002	-2.128496e-002	0.0	1.395000e-002	-1.890350e-002	0.0	1.049000e-002	-1.649060e-002	0.0	7.520000e-003	-1.404719e-002	0.0	5.040000e-003	-1.157316e-002	0.0	3.050000e-003	-9.066009e-003	0.0	1.560000e-003	-6.537249e-003	0.0	5.600000e-004	-3.960204e-003	0.0	6.000000e-005	-1.321861e-003	0.0	0.000000e+000	0.000000e+000	0.0	6.000000e-005	1.406477e-003	0.0	5.600000e-004	4.238852e-003	0.0	1.560000e-003	6.936990e-003	0.0	3.050000e-003	9.494466e-003	0.0	5.040000e-003	1.193859e-002	0.0	7.520000e-003	1.426461e-002	0.0	1.049000e-002	1.648443e-002	0.0	1.395000e-002	1.860843e-002	0.0	1.790000e-002	2.064612e-002	0.0	2.232000e-002	2.259804e-002	0.0	2.723000e-002	2.448249e-002	0.0	3.260000e-002	2.629657e-002	0.0	3.844000e-002	2.805221e-002	0.0	4.474000e-002	2.975338e-002	0.0	5.149000e-002	3.140387e-002	0.0	5.869000e-002	3.300918e-002	0.0	6.633000e-002	3.457168e-002	0.0	7.440000e-002	3.609328e-002	0.0	8.290000e-002	3.757709e-002	0.0	9.181000e-002	3.902212e-002	0.0	1.011300e-001	4.043030e-002	0.0	1.108500e-001	4.180133e-002	0.0	1.209500e-001	4.313326e-002	0.0	1.314400e-001	4.442764e-002	0.0	1.422900e-001	4.568057e-002	0.0	1.534900e-001	4.689052e-002	0.0	1.650400e-001	4.805655e-002	0.0	1.769300e-001	4.917626e-002	0.0	1.891400e-001	5.024609e-002	0.0	2.016600e-001	5.126318e-002	0.0	2.144700e-001	5.222365e-002	0.0	2.275700e-001	5.312483e-002	0.0	2.409400e-001	5.396227e-002	0.0	2.545700e-001	5.473194e-002	0.0	2.684500e-001	5.542946e-002	0.0	2.825500e-001	5.604923e-002	0.0	2.968700e-001	5.658690e-002	0.0	3.114000e-001	5.703721e-002	0.0	3.261100e-001	5.739423e-002	0.0	3.409900e-001	5.765261e-002	0.0	3.560400e-001	5.780693e-002	0.0	3.712300e-001	5.785143e-002	0.0	3.865400e-001	5.778092e-002	0.0	4.019700e-001	5.759037e-002	0.0	4.175000e-001	5.727525e-002	0.0	4.331100e-001	5.683178e-002	0.0	4.487800e-001	5.625716e-002	0.0	4.645100e-001	5.554873e-002	0.0	4.802700e-001	5.470618e-002	0.0	4.960500e-001	5.372971e-002	0.0	5.118400e-001	5.262083e-002	0.0	5.276100e-001	5.138425e-002	0.0	5.433600e-001	5.002429e-002	0.0	5.590600e-001	4.854980e-002	0.0	5.747100e-001	4.696909e-002	0.0	5.902800e-001	4.529574e-002	0.0	6.057600e-001	4.354369e-002	0.0	6.211300e-001	4.173025e-002	0.0	6.363800e-001	3.987373e-002	0.0	6.515000e-001	3.799409e-002	0.0	6.664700e-001	3.611374e-002	0.0	6.812700e-001	3.425554e-002	0.0	6.958900e-001	3.244040e-002	0.0	7.103200e-001	3.068741e-002	0.0	7.245300e-001	2.901471e-002	0.0	7.385200e-001	2.743215e-002	0.0	7.522800e-001	2.594495e-002	0.0	7.657800e-001	2.455356e-002	0.0	7.790100e-001	2.324905e-002	0.0	7.919700e-001	2.201503e-002	0.0	8.046400e-001	2.083184e-002	0.0	8.170100e-001	1.967597e-002	0.0	8.290500e-001	1.852589e-002	0.0	8.407700e-001	1.735976e-002	0.0	8.521600e-001	1.616386e-002	0.0	8.631800e-001	1.493636e-002	0.0	8.738500e-001	1.367815e-002	0.0	8.841500e-001	1.240287e-002	0.0	8.940600e-001	1.113079e-002	0.0	9.035800e-001	9.883406e-003	0.0	9.127000e-001	8.684895e-003	0.0	9.214000e-001	7.560568e-003	0.0	9.296900e-001	6.530749e-003	0.0	9.375400e-001	5.618331e-003	0.0	9.449600e-001	4.836245e-003	0.0	9.519400e-001	4.190577e-003	0.0	9.584700e-001	3.673441e-003	0.0	9.645400e-001	3.261077e-003	0.0	9.701500e-001	2.916723e-003	0.0	9.752800e-001	2.601317e-003	0.0	9.799500e-001	2.280748e-003	0.0	9.841300e-001	1.940203e-003	0.0	9.878400e-001	1.579415e-003	0.0	9.910500e-001	1.216966e-003	0.0	9.937800e-001	8.728569e-004	0.0	9.960200e-001	5.693773e-004	0.0	9.977600e-001	3.237013e-004	0.0	9.990000e-001	1.451253e-004	0.0	9.997500e-001	3.632693e-005	0.0	1.000000e+000	0.000000e+000	0.0	1.984229e+001	2.506660e+000	0.0	1.937166e+001	4.973800e+000	0.0	1.859553e+001	7.362490e+000	0.0	1.752613e+001	9.635070e+000	0.0	1.618034e+001	1.175571e+001	0.0	1.457937e+001	1.369094e+001	0.0	1.274848e+001	1.541027e+001	0.0	1.071654e+001	1.688656e+001	0.0	8.515590e+000	1.809654e+001	0.0	6.180340e+000	1.902113e+001	0.0	3.747630e+000	1.964575e+001	0.0	1.255810e+000	1.996053e+001	0.0	-1.255810e+000	1.996053e+001	0.0	-3.747630e+000	1.964574e+001	0.0	-6.180340e+000	1.902113e+001	0.0	-8.515590e+000	1.809654e+001	0.0	-1.071654e+001	1.688656e+001	0.0	-1.274848e+001	1.541026e+001	0.0	-1.457937e+001	1.369094e+001	0.0	-1.618034e+001	1.175570e+001	0.0	-1.752613e+001	9.635070e+000	0.0	-1.859553e+001	7.362490e+000	0.0	-1.937166e+001	4.973800e+000	0.0	-1.984229e+001	2.506660e+000	0.0	-2.000000e+001	0.000000e+000	0.0	-1.984229e+001	-2.506670e+000	0.0	-1.937166e+001	-4.973800e+000	0.0	-1.859553e+001	-7.362490e+000	0.0	-1.752613e+001	-9.635080e+000	0.0	-1.618034e+001	-1.175571e+001	0.0	-1.457937e+001	-1.369094e+001	0.0	-1.274848e+001	-1.541027e+001	0.0	-1.071653e+001	-1.688656e+001	0.0	-8.515580e+000	-1.809654e+001	0.0	-6.180340e+000	-1.902113e+001	0.0	-3.747620e+000	-1.964575e+001	0.0	-1.255810e+000	-1.996053e+001	0.0	1.255810e+000	-1.996053e+001	0.0	3.747630e+000	-1.964574e+001	0.0	6.180340e+000	-1.902113e+001	0.0	8.515590e+000	-1.809654e+001	0.0	1.071654e+001	-1.688656e+001	0.0	1.274848e+001	-1.541026e+001	0.0	1.457937e+001	-1.369094e+001	0.0	1.618034e+001	-1.175570e+001	0.0	1.752614e+001	-9.635070e+000	0.0	1.859553e+001	-7.362490e+000	0.0	1.937166e+001	-4.973790e+000	0.0	1.984229e+001	-2.506660e+000	0.0	2.000000e+001	0.000000e+000	0.0	6.071092e-002	-4.473788e-002	0.0	6.602382e-001	-5.715406e-002	0.0	4.258208e-001	7.111706e-002	0.0	6.900001e-001	4.687311e-002	0.0	3.792366e-001	-7.490728e-002	0.0	9.994613e-001	-6.935528e-004	0.0	9.985514e-001	-1.266237e-003	0.0	7.738777e-001	-4.527920e-002	0.0	6.898906e-001	-5.437921e-002	0.0	-1.346579e-003	6.435636e-003	0.0	7.468182e-001	-4.852475e-002	0.0	5.837777e-001	6.024097e-002	0.0	9.927467e-001	-3.318117e-003	0.0	9.898087e-001	-3.979940e-003	0.0	5.993443e-001	5.847949e-002	0.0	7.187907e-001	-5.152126e-002	0.0	-1.539780e-003	7.993644e-004	0.0	9.863655e-001	-4.584390e-003	0.0	9.824314e-001	-5.101552e-003	0.0	-1.355459e-003	-6.144665e-003	0.0	6.451686e-001	-5.852040e-002	0.0	8.245953e-001	-3.767159e-002	0.0	7.998364e-001	-4.169491e-002	0.0	3.485878e-001	7.137551e-002	0.0	8.480110e-001	-3.322651e-002	0.0	2.472743e-001	6.684700e-002	0.0	8.700120e-001	-2.842656e-002	0.0	1.013763e-002	2.066375e-002	0.0	8.904812e-001	-2.344542e-002	0.0	7.697284e-002	-4.940417e-002	0.0	9.093439e-001	-1.852255e-002	0.0	-1.867157e-003	-3.019997e-003	0.0	9.419940e-001	-1.027556e-002	0.0	9.265297e-001	-1.398602e-002	0.0	1.796478e-002	-2.650868e-002	0.0	4.258863e-001	-7.361960e-002	0.0	8.591983e-001	-3.085946e-002	0.0	9.557438e-001	-7.764955e-003	0.0	9.780064e-001	-5.551123e-003	0.0	9.677696e-001	-6.386163e-003	0.0	1.581826e-001	-6.472859e-002	0.0	9.001201e-001	-2.095887e-002	0.0	7.604796e-001	-4.693919e-002	0.0	9.971257e-001	-1.966408e-003	0.0	5.991603e-001	-6.252087e-002	0.0	4.415963e-001	-7.298898e-002	0.0	5.364766e-001	-6.743199e-002	0.0	4.731778e-001	-7.145238e-002	0.0	5.048411e-001	-6.958391e-002	0.0	4.889986e-001	-7.055622e-002	0.0	1.248704e-001	-5.966832e-002	0.0	2.785283e-002	-3.199416e-002	0.0	3.946942e-001	-7.458300e-002	0.0	4.620545e-002	-3.981
[...]
POINT_DATA 5233

SCALARS Density float 1
LOOKUP_TABLE default
1.165113e+000	1.134779e+000	1.111711e+000	1.088778e+000	1.067116e+000	1.051452e+000	1.048052e+000	1.059581e+000	1.082879e+000	1.111371e+000	1.138102e+000	1.157730e+000	1.168243e+000	1.169761e+000	1.163400e+000	1.150825e+000	1.133839e+000	1.114264e+000	1.093554e+000	1.072700e+000	1.052304e+000	1.032584e+000	1.013586e+000	9.955764e-001	9.788969e-001	9.641171e-001	9.518403e-001	9.426124e-001	9.366089e-001	9.336423e-001	9.331982e-001	9.345142e-001	9.368382e-001	9.395039e-001	9.420370e-001	9.440614e-001	9.453296e-001	9.457130e-001	9.451262e-001	9.436213e-001	9.412473e-001	9.380642e-001	9.340942e-001	9.294005e-001	9.241060e-001	9.184737e-001	9.127249e-001	9.066340e-001	8.996187e-001	8.920747e-001	8.865840e-001	8.862317e-001	8.896134e-001	8.864897e-001	8.624742e-001	8.175924e-001	7.805395e-001	7.681132e-001	7.704134e-001	7.758576e-001	7.801914e-001	7.835774e-001	7.871051e-001	7.912464e-001	7.959524e-001	8.011174e-001	8.067080e-001	8.126813e-001	8.189668e-001	8.254731e-001	8.321842e-001	8.392080e-001	8.467285e-001	8.548285e-001	8.634542e-001	8.724568e-001	8.818353e-001	8.917031e-001	9.020939e-001	9.130204e-001	9.245721e-001	9.367816e-001	9.497599e-001	9.635973e-001	9.784418e-001	9.945130e-001	1.011996e+000	1.031201e+000	1.052542e+000	1.076295e+000	1.102974e+000	1.133113e+000	1.166841e+000	1.204236e+000	1.244365e+000	1.285417e+000	1.320659e+000	1.347626e+000	1.348325e+000	1.332864e+000	1.322228e+000	1.281307e+000	1.195129e+000	1.114582e+000	1.037590e+000	9.701342e-001	9.159761e-001	8.750566e-001	8.446992e-001	8.223100e-001	8.059127e-001	7.939466e-001	7.854594e-001	7.794321e-001	7.753075e-001	7.728457e-001	7.715951e-001	7.710276e-001	7.707173e-001	7.703687e-001	7.700194e-001	7.698682e-001	7.699413e-001	7.699153e-001	7.694290e-001	7.684169e-001	7.670424e-001	7.653374e-001	7.632590e-001	7.607936e-001	7.580434e-001	7.550514e-001	7.518048e-001	7.481963e-001	7.441660e-001	7.396307e-001	7.345687e-001	7.289790e-001	7.228560e-001	7.163295e-001	7.095440e-001	7.026037e-001	6.954158e-001	6.878342e-001	6.798028e-001	6.715068e-001	6.630693e-001	6.547542e-001	6.465572e-001	6.387433e-001	6.310939e-001	6.237692e-001	6.174479e-001	6.128602e-001	6.065294e-001	5.982589e-001	6.036413e-001	7.213079e-001	9.367171e-001	1.007617e+000	1.002042e+000	9.985832e-001	1.003501e+000	1.007309e+000	1.009735e+000	1.011675e+000	1.012884e+000	1.013125e+000	1.012446e+000	1.011054e+000	1.009246e+000	1.007495e+000	1.006312e+000	1.006224e+000	1.007655e+000	1.010819e+000	1.015705e+000	1.022038e+000	1.029390e+000	1.037298e+000	1.045294e+000	1.052993e+000	1.059975e+000	1.065786e+000	1.069871e+000	1.071722e+000	1.071010e+000	1.067863e+000	1.063104e+000	1.058289e+000	1.055306e+000	1.055768e+000	1.060471e+000	1.069114e+000	1.080438e+000	1.093717e+000	1.108185e+000	1.124809e+000	1.143027e+000	1.138505e+000	9.993477e-001	9.997895e-001	9.998030e-001	9.997063e-001	9.996300e-001	9.995360e-001	9.994232e-001	9.992817e-001	9.991279e-001	9.990193e-001	9.989595e-001	9.990152e-001	9.991606e-001	9.994388e-001	9.996735e-001	9.998664e-001	9.999772e-001	1.000049e+000	1.000096e+000	1.000118e+000	1.000133e+000	1.000140e+000	1.000146e+000	1.000153e+000	1.000159e+000	1.000168e+000	1.000182e+000	1.000200e+000	1.000226e+000	1.000264e+000	1.000307e+000	1.000377e+000	1.000445e+000	1.000561e+000	1.000668e+000	1.000800e+000	1.000938e+000	1.000994e+000	1.001013e+000	1.000941e+000	1.000860e+000	1.000738e+000	1.000622e+000	1.000507e+000	1.000402e+000	1.000277e+000	1.000182e+000	1.000173e+000	9.996657e-001	9.990239e-001	9.698489e-001	9.450466e-001	6.832650e-001	1.001196e+000	7.744838e-001	1.142070e+000	1.124928e+000	9.387550e-001	9.465497e-001	1.262213e+000	9.413951e-001	6.065557e-001	1.071508e+000	1.063656e+000	5.985342e-001	9.449175e-001	1.329378e+000	1.066012e+000	1.078503e+000	1.332669e+000	9.431012e-001	9.543656e-001	9.415236e-001	7.194460e-001	9.781405e-001	7.554675e-001	1.009478e+000	9.523792e-001	1.044687e+000	9.424145e-001	1.081682e+000	1.345767e+000	1.144521e+000	1.117405e+000	1.110578e+000	8.841636e-001	9.931437e-001	1.152924e+000	1.097465e+000	1.135575e+000	8.591364e-001	1.063077e+000	9.397225e-001	1.104877e+000	9.328155e-001	8.961514e-001	9.118672e-001	8.886547e-001	8.981021e-001	8.912153e-001	8.865321e-001	1.060409e+000	7.965309e-001	1.001457e+000	8.439116e-001	7.875924e-001	7.789408e-001	1.038877e+000	7.951136e-001	1.132660e+000	8.678226e-001	8.364363e-001	9.299527e-001	9.070300e-001	9.227709e-001	8.510395e-001	9.369667e-001	1.026773e+000	1.084203e+000	1.086614e+000	1.206372e+000	8.762735e-001	1.100047e+000	1.151657e+000	1.117990e+000	1.199113e+000	9.650453e-001	8.105459e-001	9.174078e-001	9.432571e-001	9.391227e-001	8.965084e-001	8.229361e-001	9.280170e-001	9.462193e-001	9.850524e-001	1.242436e+000	1.139740e+000	7.734247e-001	8.435347e-001	1.181689e+000	8.165633e-001	9.181807e-001	7.910685e-001	8.049410e-001	8.923659e-001	9.460828e-001	1.311288e+000	1.310288e+000	6.277633e-001	1.337685e+000	8.303189e-001	7.899987e-001	8.041115e-001	7.773391e-001	6.912068e-001	1.101747e+000	6.352045e-001	6.585247e-001	1.061887e+000	1.067301e+000	1.028227e+000	6.506062e-001	6.750524e-001	7.059414e-001	1.055396e+000	1.042079e+000	7.817777e-001	1.059872e+000	1.068444e+000	1.065165e+000	7.790767e-001	7.860592e-001	7.429082e-001	7.517345e-001	7.719979e-001	7.320584e-001	6.667929e-001	6.987926e-001	7.752145e-001	7.768848e-001	8.510581e-001	7.675508e-001	7.619633e-001	1.005023e+000	6.168606e-001	1.011868e+000	1.008172e+000	1.011337e+000	1.012843e+000	1.010559e+000	1.009508e+000	1.035037e+000	1.016879e+000	1.067747e+000	1.048989e+000	1.064800e+000	1.013000e+000	1.022050e+000	1.010274e+000	1.009474e+000	1.012739e+000	1.012311e+000	1.005609e+000	1.010225e+000	1.009091e+000	9.972944e-001	6.219227e-001	6.236156e-001	7.648762e-001	7.588599e-001	7.737644e-001	7.699477e-001	7.958478e-001	7.762790e-001	9.097789e-001	8.153378e-001	8.295843e-001	1.065792e+000	1.147577e+000	9.465002e-001	7.839733e-001	9.055556e-001	1.132674e+000	8.501966e-001	1.004653e+000	7.803682e-001	7.835071e-001	7.475590e-001	7.780213e-001	1.060018e+000	1.063151e+000	7.377396e-001	1.069496e+000	1.078396e+000	7.259370e-001	7.127895e-001	1.060923e+000	1.155500e+000	1.116083e+000	1.129832e+000	9.403915e-001	1.019321e+000	1.089342e+000	6.427841e-001	1.278351e+000	1.171830e+000	9.556739e-001	8.769926e-001	7.997692e-001	7.964016e-001	1.239779e+000	1.288233e+000	8.045966e-001	9.476356e-001	1.087045e+000	1.199301e+000	6.206236e-001	9.473712e-001	9.447216e-001	1.075732e+000	7.924391e-001	9.921732e-001	9.674839e-001	9.356154e-001	1.313021e+000	8.344936e-001	1.139543e+000	1.136202e+000	8.729729e-001	9.472440e-001	9.448134e-001	8.962484e-001	9.481906e-001	7.907848e-001	1.054612e+000	9.469521e-001	1.022325e+000	9.028613e-001	9.968455e-001	1.013388e+000	7.867292e-001	9.993229e-001	7.794434e-001	1.022715e+000	1.070050e+000	7.295218e-001	6.478710e-001	1.065479e+000	1.027817e+000	1.076496e+000	1.065852e+000	1.063364e+000	7.631805e-001	7.356162e-001	7.664610e-001	7.883535e-001	9.464634e-001	8.415253e-001	9.757271e-001	7.828583e-001	8.136998e-001	1.063962e+000	1.085028e+000	1.033538e+000	8.643192e-001	1.171945e+000	1.106138e+000	1.094895e+000	1.074633e+000	1.186590e+000	1.230837e+000	1.336146e+000	1.329016e+000	1.112513e+000	1.183616e+000	9.757140e-001	1.114081e+000	1.086395e+000	6.951669e-001	9.166195e-001	1.080654e+000	1.022178e+000	5.993607e-001	1.077740e+000	1.331482e+000	8.941001e-001	7.026849e-001	9.789168e-001	7.513621e-001	1.006700e+000	1.038207e+000	9.615147e-001	1.070992e+000	1.102199e+000	1.134242e+000	1.064994e+000	1.137607e+000	1.129890e+000	1.091702e+000	8.918809e-001	9.445071e-001	9.441193e-001	1.099154e+000	8.926973e-001	8.930639e-001	8.980620e-001	1.087821e+000	8.260751e-001	8.707992e-001	7.881571e-001	1.024970e+000	1.115696e+000	1.126678e+000	8.822011e-001	9.237409e-001	9.218284e-001	9.359561e-001	1.119200e+000	1.105610e+000	9.464242e-001	9.454292e-001	9.125732e-001	9.019700e-001	9.269175e-001	9.316935e-001	1.007347e+000	9.909858e-001	1.168455e+000	7.827172e-001	7.797535e-001	8.563343e-001	8.487873e-001	8.277520e-001	8.213471e-001	8.000293e-001	7.960911e-001	8.153343e-001	1.318455e+000	1.262341e+000	8.238929e-001	1.065544e+000	6.400743e-001	6.555765e-001	6.635578e-001	6.713892e-001	1.063079e+000	1.065165e+000	1.051390e+000	6.794642e-001	6.873643e-001	7.099443e-001	1.045649e+000	1.063773e+000	8.004769e-001	8.060537e-001	7.596276e-001	7.556840e-001	7.812506e-001	7.843377e-001	7.855355e-001	1.012741e+000	1.010579e+000	1.008597e+000	1.012959e+000	1.012371e+000	1.039582e+000	1.018520e+000	1.015384e+000	1.012151e+000	1.012409e+000	1.012749e+000	1.011977e+000	1.006693e+000	1.004278e+000	1.006566e+000	9.720634e-001	6.272586e-001	6.334450e-001	7.150801e-001	6.082332e-001	7.694581e-001	7.723114e-001	7.749524e-001	7.773793e-001	9.360260e-001	8.373088e-001	8.545418e-001	9.513343e-001	9.581948e-001	9.048060e-001	9.110760e-001	1.131030e+000	8.760796e-001	7.905504e-001	7.932077e-001	7.413033e-001	7.465592e-001	7.167770e-001	7.232758e-001	1.060735e+000	1.056518e+000	9.395438e-001	9.425199e-001	1.044083e+000	1.291479e+000	8.097308e-001	1.310916e+000	8.125982e-001	8.100081e-001	9.525278e-001	9.164229e-001	1.089672e+000	1.075630e+000	1.070551e+000	1.064321e+000	1.130621e+000	1.082600e+000	1.117857e+000	1.134241e+000	1.107144e+000	1.162274e+000	1.113979e+000	1.300032e+000	9.418146e-001	1.101654e+000	1.083793e+000	6.307935e-001	1.129779e+000	1.220071e+000	9.494074e-001	1.272784e+000	9.493408e-001	1.138559e+000	1.018741e+000	1.192254e+000	7.977463e-001	1.005001e+000	9.490874e-001	1.088803e+000	1.165003e+000	1.065086e+000	6.537550e-001	1.062570e+000	1.004815e+000	1.090196e+000	6.616243e-001	7.600261e-001	7.397035e-001	7.877244e-001	8.145805e-001	1.127383e+000	1.290817e+000	1.219517e+000	9.580804e-001	1.265922e+000	1.121782e+000	9.543677e-001	1.323688e+000	8.785931e-001	8.976917e-001	1.090805e+000	1.036764e+000	1.015638e+000	1.013456e+000	9.986262e-001	1.067043e+000	1.063849e+000	1.032623e+000	1.027783e+000	7.453658e-001	7.555306e-001	7.713133e-001	7.979531e-001	9.468300e-001	9.482321e-001	8.469994e-001	9.952587e-001	7.896021e-001	1.064378e+000	1.098228e+000	1.082492e+000	1.177576e+000	1.247156e+000	1.318567e+000	1.068978e+000	1.152387e+000	1.140159e+000	1.115578e+000	1.083974e+000	6.184217e-001	8.990979e-001	7.071524e-001	9.804031e-001	9.921351e-001	1.032981e+000	1.047614e+000	9.818299e-001	9.677139e-001	1.062046e+000	1.076295e+000	1.123729e+000	1.124611e+000	1.088864e+000	9.491638e-001	9.502802e-001	1.097669e+000	8.963678e-001	8.992224e-001	8.542623e-001	8.881726e-001	1.049020e+000	1.111820e+000	1.119294e+000	8.977314e-001	8.878860e-001	9.215026e-001	9.264072e-001	1.106889e+000	1.097306e+000	9.490980e-001	9.489897e-001	9.299276e-001	9.185456e-001	9.078722e-001	9.310809e-001	9.353697e-001	1.030642e+000	1.013266e+000	9.969387e-001	7.930750e-001	7.885566e-001	7.908884e-001	8.701525e-001	8.621557e-001	8.544532e-001	8.398851e-001	8.331014e-001	8.055499e-001	8.016350e-001	8.266967e-001	8.429064e-001	6.690618e-001	6.768735e-001	1.064309e+000	6.845448e-001	6.922810e-001	6.997488e-001	7.143217e-001	1.048247e+000	8.218377e-001	8.311533e-001	7.640816e-001	7.678789e-001	7.915560e-001	7.938231e-001	7.959208e-001	1.009534e+000	1.043147e+000	1.037826e+000	1.023496e+000	1.020031e+000	1.017425e+000	1.014544e+000	1.013943e+000	1.013698e+000	1.012987e+000	1.012285e+000	1.011015e+000	1.007862e+000	1.006731e+000	1.003564e+000	1.007368e+000	6.401830e-001	6.467804e-001	8.816499e-001	6.467562e-001	6.017100e-001	7.745339e-001	7.774647e-001	7.803343e-001	7.830336e-001	7.855781e-001	8.578004e-001	8.765516e-001	9.564899e-001	9.624917e-001	9.704238e-001	9.048148e-001	9.108658e-001	8.993387e-001	9.261403e-001	8.006922e-001	8.044490e-001	8.089813e-001	7.506790e-001	7.213422e-001	7.278796e-001	7.339421e-001	1.060303e+000	1.057065e+000	1.052997e+000	9.390778e-001	9.422436e-001	9.448016e-001	8.206765e-001	8.150985e-001	1.290179e+000	9.481494e-001	1.092718e+000	1.067736e+000	9.212792e-001	1.277992e+000	1.117494e+000	1.089799e+000	1.098956e+000	1.071694e+000	1.079990e+000	6.763681e-001	1.270628e+000	1.010907e+000	1.207637e+000	1.062890e+000	1.086080e+000	1.202285e+000	1.011729e+000	1.166664e+000	1.137188e+000	1.156555e+000	9.608336e-001	8.854825e-001	1.113980e+000	8.404822e-001	9.607344e-001	9.009666e-001	8.167814e-001	1.070694e+000	6.458851e-001	1.061589e+000	1.059719e+000	1.013153e+000	7.972425e-001	7.694477e-001	1.088147e+000	8.373736e-001	1.017152e+000	1.106505e+000	1.074788e+000	1.103170e+000	1.104883e+000	1.135991e+000	9.512264e-001	1.231469e+000	9.522420e-001	9.521233e-001	1.159666e+000	1.090692e+000	1.183796e+000	1.016951e+000	6.675635e-001	7.556648e-001	1.242898e+000	1.047561e+000	1.003796e+000	1.032182e+000	7.505527e-001	7.606713e-001	7.651334e-001	9.490202e-001	9.506476e-001	1.065797e+000	1.086163e+000	1.126981e+000	1.253824e+000	1.299998e+000	1.092208e+000	1.109854e+000	1.089153e+000	6.296127e-001	9.935518e-001	1.004756e+000	1.029728e+000	1.042493e+000	9.877372e-001	9.738558e-001	1.055140e+000	1.067540e+000	1.079174e+000	1.113226e+000	1.112836e+000	9.546555e-001	9.582741e-001	1.096043e+000	9.004556e-001	9.016628e-001	8.767610e-001	8.968071e-001	1.106316e+000	1.110959e+000	9.043324e-001	8.941058e-001	9.264408e-001	1.098865e+000	1.093105e+000	9.531383e-001	9.540703e-001	9.362679e-001	9.250871e-001	9.146688e-001	9.307706e-001	9.352620e-001	1.053399e+000	1.035471e+000	1.018245e+000	1.002360e+000	8.044227e-001	8.003607e-001	7.995331e-001	8.099898e-001	8.771635e-001	8.690720e-001	8.611538e-001	8.536345e-001	8.464888e-001	8.084511e-001	8.124160e-001	8.397218e-001	6.836699e-001	1.064630e+000	1.063780e+000	6.912681e-001	6.984466e-001	7.058595e-001	7.127701e-001	7.198863e-001	8.486424e-001	8.623679e-001	7.732822e-001	7.770674e-001	7.995322e-001	8.021685e-001	8.053330e-001	8.084165e-001	1.045819e+000	1.041257e+000	1.036719e+000	1.028056e+000	1.024402e+000	1.021415e+000	1.018719e+000	1.015939e+000	1.014625e+000	1.014109e+000	1.012393e+000	1.010932e+000	1.009635e+000	1.007169e+000	1.005396e+000	1.002772e+000	1.000503e+000	6.619878e-001	6.525769e-001	9.673819e-001	7.543255e-001	6.368122e-001	6.144063e-001	7.803670e-001	7.835796e-001	7.863466e-001	7.891922e-001	7.918696e-001	7.945720e-001	8.781221e-001	8.972783e-001	9.673766e-001	9.746730e-001	9.832713e-001	9.058317e-001	9.104511e-001	9.163599e-001	9.206782e-001	9.472816e-001	9.769349e-001	8.116298e-001	8.159104e-001	8.219044e-001	8.289098e-001	7.266117e-001	7.333862e-001	7.395881e-001	7.451060e-001	1.050087e+000	1.057117e+000	1.053945e+000	9.388296e-001	9.423209e-001	9.449162e-001	9.474327e-001	8.333219e-001	8.273017e-001	8.217834e-001	1.154071e+000	1.089655e+000	1.100665e+000	1.131133e+000	1.175557e+000	9.559468e-001	9.548937e-001	1.196367e+000	1.067644e+000	1.236460e+000	1.092627e+000	8.938962e-001	8.083330e-001	1.056271e+000	1.157652e+000	1.251289e+000	1.303183e+000	1.304589e+000	1.293137e+000	1.251963e+000	1.100827e+000	7.618700e-001	1.097369e+000	1.091691e+000	1.093895e+000	9.681797e-001	8.647446e-001	1.082577e+000	1.047863e+000	1.057050e+000	6.643822e-001	6.791022e-001	1.008076e+000	1.011283e+000	6.916731e-001	9.235387e-001	7.556403e-001	1.077874e+000	9.672865e-001	1.121307e+000	1.070284e+000	1.300241e+000	1.147957e+000	1.135740e+000	1.088796e+000	1.074478e+000	1.268405e+000	1.023727e+000	1.216910e+000	1.061057e+000	1.188342e+000	1.133396e+000	1.142000e+000	1.133281e+000	8.188742e-001	8.246342e-001	1.073658e+000	6.417160e-001	1.059302e+000	1.090420e+000	9.538946e-001	1.221642e+000	7.655893e-001	7.712973e-001	7.745221e-001	9.509590e-001	1.089434e+000	1.123733e+000	1.278548e+000	1.113333e+000	1.006018e+000	1.015408e+000	1.027133e+000	1.038519e+000	9.801449e-001	9.940254e-001	1.049732e+000	1.060975e+000	1.070236e+000	1.080761e+000	1.103830e+000	1.103035e+000	9.610448e-001	1.094856e+000	9.044731e-001	9.059845e-001	8.898324e-001	9.010895e-001	1.100149e+000	1.102743e+000	9.107550e-001	9.003074e-001	1.093936e+000	1.091317e+000	9.583551e-001	9.427605e-001	9.311329e-001	9.231442e-001	9.330190e-001	1.057042e+000	1.039836e+000	1.023191e+000	1.008419e+000	8.164821e-001	8.114300e-001	8.115311e-001	8.127450e-001	8.320298e-001	8.838819e-001	8.772280e-001	8.674403e-001	8.614840e-001	8.527211e-001	1.065602e+000	1.064023e+000	1.062586e+000	6.976287e-001	7.061601e-001	7.117519e-001	7.199531e-001	7.252715e-001	8.664073e-001	8.815096e-001	7.797621e-001	7.825296e-001	8.096413e-001	8.148036e-001	8.193676e-001	1.043638e+000	1.039703e+000	1.035520e+000	1.031561e+000	1.027916e+000	1.024542e+000	1.021581e+000	1.018225e+000	1.015820e+000	1.013642e+000	1.007155e+000	1.001016e+000	1.007071e+000	7.777144e-001	6.353635e-001	7.873179e-001	7.894834e-001	7.937224e-001	7.952754e-001	7.993192e-001	8.021063e-001	8.051371e-001	8.986257e-001	9.174974e-001	9.784360e-001	9.854769e-001	9.953613e-001	9.081982e-001	9.137667e-001	9.399670e-001	9.662229e-001	9.936980e-001	8.237609e-001	8.288807e-001	8.358104e-001	8.452650e-001	8.551298e-001	7.330978e-001	7.382105e-001	7.454887e-001	7.517472e-001	1.054527e+000	1.050806e+000	9.407164e-001	9.466477e-001	8.474575e-001	8.394874e-001	8.350286e-001	8.281023e-001	1.124140e+000	1.112962e+000	1.185285e+000	1.267599e+000	1.147881e+000	1.092383e+000	1.075888e+000	1.203170e+000	1.060885e+000	1.104585e+000	1.090763e+000	1.259292e+000	1.092764e+000	1.166799e+000	7.646851e-001	1.131154e+000	1.091194e+000	1.175403e+000	1.147998e+000	1.094018e+000	9.213174e-001	1.072370e+000	8.290591e-001	1.089495e+000	1.082346e+000	9.457076e-001	9.612683e-001	8.963301e-001	1.233897e+000	8.879881e-001	9.873508e-001	9.745033e-001	8.216299e-001	1.066759e+000	1.046532e+000	1.229023e+000	1.062419e+000	1.095400e+000	1.125821e+000	1.069256e+000	1.301186e+000	1.247952e+000	1.091654e+000	9.612632e-001	6.977521e-001	7.088422e-001	1.079858e+000	1.134091e+000	1.092720e+000	1.281051e+000	1.140946e+000	1.076524e+000	1.219726e+000	1.203086e+000	6.631338e-001	1.110986e+000	1.059163e+000	1.056587e+000	6.828474e-001	7.740396e-001	7.829168e-001	9.580861e-001	1.120221e+000	1.148749e+000	1.130112e+000	1.020185e+000	1.039347e+000	9.999385e-001	1.058506e+000	1.072341e+000	1.095965e+000	1.093996e+000	9.078137e-001	1.093852e+000	1.095335e+000	9.126118e-001	1.091078e+000	9.648867e-001	9.705273e-001	9.444875e-001	9.294651e-001	9.307163e-001	1.060159e+000	1.042831e+000	1.027159e+000	1.016057e+000	8.229600e-001	8.267309e-001	8.528660e-001	8.795328e-001	8.641013e-001	1.064647e+000	1.062776e+000	7.224336e-001	7.352940e-001	8.999762e-001	7.911237e-001	8.303651e-001	1.014458e+000	1.039561e+000	1.032143e+000	1.025612e+000	1.020869e+000	1.017479e+000	1.011718e+000	1.008015e+000	1.000362e+000	1.000379e+000	1.017326e+000	9.311970e-001	6.940431e-001	6.488970e-001	7.983924e-001	8.045807e-001	8.103771e-001	8.120234e-001	8.170595e-001	9.185376e-001	9.372981e-001	9.799803e-001	9.918758e-001	1.006397e+000	9.119318e-001	9.145141e-001	9.579498e-001	9.823190e-001	1.008189e+000	1.034356e+000	8.369126e-001	8.428879e-001	8.504681e-001	8.610226e-001	8.745753e-001	8.827325e-001	7.470971e-001	7.574353e-001	1.054859e+000	1.051710e+000	9.391464e-001	9.508457e-001	9.548817e-001	8.504139e-001	8.386129e-001	1.083774e+000	1.127792e+000	1.121607e+000	1.098152e+000	1.039482e+000	1.077236e+000	1.127899e+000	1.101745e+000	1.190115e+000	1.142163e+000	1.109701e+000	1.096981e+000	1.116731e+000	1.209137e+000	1.240433e+000	1.063189e+000	9.676659e-001	7.699442e-001	1.089296e+000	1.062825e+000	1.108660e+000	9.094914e-001	1.092241e+000	1.174719e+000	8.756073e-001	1.085412e+000	9.503400e-001	9.286511e-001	1.089513e+000	1.089366e+000	1.092500e+000	1.078284e+000	1.125967e+000	1.070644e+000	1.073628e+000	1.059110e+000	7.870967e-001	6.608073e-001	9.593310e-001	1.005271e+000	1.109392e+000	1.114909e+000	1.280957e+000	1.089765e+000	1.061034e+000	1.142486e+000	1.089574e+000	1.187121e+000	1.158280e+000	9.207797e-001	1.229111e+000	9.955266e-001	9.803952e-001	1.067924e+000	1.246231e+000	1.089813e+000	1.090497e+000	9.633145e-001	1.260397e+000	1.141482e+000	1.020105e+000	1.217117e+000	1.204280e+000	7.