# vtk DataFile Version 3.0
vtk output
ASCII
DATASET UNSTRUCTURED_GRID
POINTS 5233 float
9.997500e-001	-3.632977e-005	0.0	9.990000e-001	-1.453048e-004	0.0	9.977600e-001	-3.256761e-004	0.0	9.960200e-001	-5.800909e-004	0.0	9.937800e-001	-9.118426e-004	0.0	9.910500e-001	-1.325819e-003	0.0	9.878400e-001	-1.830350e-003	0.0	9.841300e-001	-2.441667e-003	0.0	9.799500e-001	-3.169417e-003	0.0	9.752800e-001	-4.030690e-003	0.0	9.701500e-001	-5.029855e-003	0.0	9.645400e-001	-6.174718e-003	0.0	9.584700e-001	-7.457825e-003	0.0	9.519400e-001	-8.867659e-003	0.0	9.449600e-001	-1.038284e-002	0.0	9.375400e-001	-1.197527e-002	0.0	9.296900e-001	-1.361225e-002	0.0	9.214000e-001	-1.526345e-002	0.0	9.127000e-001	-1.689263e-002	0.0	9.035800e-001	-1.847732e-002	0.0	8.940600e-001	-1.999861e-002	0.0	8.841500e-001	-2.145028e-002	0.0	8.738500e-001	-2.283788e-002	0.0	8.631800e-001	-2.417275e-002	0.0	8.521600e-001	-2.547210e-002	0.0	8.407700e-001	-2.675996e-002	0.0	8.290500e-001	-2.805239e-002	0.0	8.170100e-001	-2.936552e-002	0.0	8.046400e-001	-3.071247e-002	0.0	7.919700e-001	-3.209610e-002	0.0	7.790100e-001	-3.351559e-002	0.0	7.657800e-001	-3.496375e-002	0.0	7.522800e-001	-3.643134e-002	0.0	7.385200e-001	-3.790505e-002	0.0	7.245300e-001	-3.936779e-002	0.0	7.103200e-001	-4.080427e-002	0.0	6.958900e-001	-4.220087e-002	0.0	6.812700e-001	-4.354265e-002	0.0	6.664700e-001	-4.481885e-002	0.0	6.515000e-001	-4.602121e-002	0.0	6.363800e-001	-4.714328e-002	0.0	6.211300e-001	-4.818124e-002	0.0	6.057600e-001	-4.913425e-002	0.0	5.902800e-001	-5.000317e-002	0.0	5.747100e-001	-5.078971e-002	0.0	5.590600e-001	-5.149708e-002	0.0	5.433600e-001	-5.212819e-002	0.0	5.276100e-001	-5.268744e-002	0.0	5.118400e-001	-5.317802e-002	0.0	4.960500e-001	-5.360378e-002	0.0	4.802700e-001	-5.396731e-002	0.0	4.645100e-001	-5.427122e-002	0.0	4.487800e-001	-5.451751e-002	0.0	4.331100e-001	-5.470735e-002	0.0	4.175000e-001	-5.484186e-002	0.0	4.019700e-001	-5.492143e-002	0.0	3.865400e-001	-5.494617e-002	0.0	3.712300e-001	-5.491599e-002	0.0	3.560400e-001	-5.483049e-002	0.0	3.409900e-001	-5.468911e-002	0.0	3.261100e-001	-5.449142e-002	0.0	3.114000e-001	-5.423657e-002	0.0	2.968700e-001	-5.392368e-002	0.0	2.825500e-001	-5.355231e-002	0.0	2.684500e-001	-5.312164e-002	0.0	2.545700e-001	-5.263040e-002	0.0	2.409400e-001	-5.207832e-002	0.0	2.275700e-001	-5.146448e-002	0.0	2.144700e-001	-5.078793e-002	0.0	2.016600e-001	-5.004823e-002	0.0	1.891400e-001	-4.924380e-002	0.0	1.769300e-001	-4.837423e-002	0.0	1.650400e-001	-4.743856e-002	0.0	1.534900e-001	-4.643671e-002	0.0	1.422900e-001	-4.536798e-002	0.0	1.314400e-001	-4.423068e-002	0.0	1.209500e-001	-4.302400e-002	0.0	1.108500e-001	-4.174989e-002	0.0	1.011300e-001	-4.040569e-002	0.0	9.181000e-002	-3.899273e-002	0.0	8.290000e-002	-3.751147e-002	0.0	7.440000e-002	-3.596090e-002	0.0	6.633000e-002	-3.434399e-002	0.0	5.869000e-002	-3.266042e-002	0.0	5.149000e-002	-3.091226e-002	0.0	4.474000e-002	-2.910235e-002	0.0	3.844000e-002	-2.723134e-002	0.0	3.260000e-002	-2.530309e-002	0.0	2.723000e-002	-2.332262e-002	0.0	2.232000e-002	-2.128760e-002	0.0	1.790000e-002	-1.921286e-002	0.0	1.395000e-002	-1.709153e-002	0.0	1.049000e-002	-1.493616e-002	0.0	7.520000e-003	-1.274977e-002	0.0	5.040000e-003	-1.053378e-002	0.0	3.050000e-003	-8.285979e-003	0.0	1.560000e-003	-6.013848e-003	0.0	5.600000e-004	-3.684294e-003	0.0	6.000000e-005	-1.259000e-003	0.0	0.000000e+000	0.000000e+000	0.0	6.000000e-005	1.519079e-003	0.0	5.600000e-004	4.707603e-003	0.0	1.560000e-003	7.789766e-003	0.0	3.050000e-003	1.071593e-002	0.0	5.040000e-003	1.350242e-002	0.0	7.520000e-003	1.613869e-002	0.0	1.049000e-002	1.863788e-002	0.0	1.395000e-002	2.101372e-002	0.0	1.790000e-002	2.328005e-002	0.0	2.232000e-002	2.544119e-002	0.0	2.723000e-002	2.752100e-002	0.0	3.260000e-002	2.951947e-002	0.0	3.844000e-002	3.145229e-002	0.0	4.474000e-002	3.332560e-002	0.0	5.149000e-002	3.514447e-002	0.0	5.869000e-002	3.691507e-002	0.0	6.633000e-002	3.863924e-002	0.0	7.440000e-002	4.031756e-002	0.0	8.290000e-002	4.195128e-002	0.0	9.181000e-002	4.353660e-002	0.0	1.011300e-001	4.507245e-002	0.0	1.108500e-001	4.655509e-002	0.0	1.209500e-001	4.797881e-002	0.0	1.314400e-001	4.934166e-002	0.0	1.422900e-001	5.063607e-002	0.0	1.534900e-001	5.185728e-002	0.0	1.650400e-001	5.300152e-002	0.0	1.769300e-001	5.406402e-002	0.0	1.891400e-001	5.503956e-002	0.0	2.016600e-001	5.592435e-002	0.0	2.144700e-001	5.671453e-002	0.0	2.275700e-001	5.740805e-002	0.0	2.409400e-001	5.800228e-002	0.0	2.545700e-001	5.849578e-002	0.0	2.684500e-001	5.888768e-002	0.0	2.825500e-001	5.917731e-002	0.0	2.968700e-001	5.936536e-002	0.0	3.114000e-001	5.945267e-002	0.0	3.261100e-001	5.944058e-002	0.0	3.409900e-001	5.933108e-002	0.0	3.560400e-001	5.912625e-002	0.0	3.712300e-001	5.882883e-002	0.0	3.865400e-001	5.844185e-002	0.0	4.019700e-001	5.796786e-002	0.0	4.175000e-001	5.740991e-002	0.0	4.331100e-001	5.677100e-002	0.0	4.487800e-001	5.605400e-002	0.0	4.645100e-001	5.526043e-002	0.0	4.802700e-001	5.439274e-002	0.0	4.960500e-001	5.345183e-002	0.0	5.118400e-001	5.243784e-002	0.0	5.276100e-001	5.135151e-002	0.0	5.433600e-001	5.019092e-002	0.0	5.590600e-001	4.895573e-002	0.0	5.747100e-001	4.764289e-002	0.0	5.902800e-001	4.625166e-002	0.0	6.057600e-001	4.477984e-002	0.0	6.211300e-001	4.322674e-002	0.0	6.363800e-001	4.159173e-002	0.0	6.515000e-001	3.987550e-002	0.0	6.664700e-001	3.808175e-002	0.0	6.812700e-001	3.621657e-002	0.0	6.958900e-001	3.428735e-002	0.0	7.103200e-001	3.230404e-002	0.0	7.245300e-001	3.028202e-002	0.0	7.385200e-001	2.823487e-002	0.0	7.522800e-001	2.617948e-002	0.0	7.657800e-001	2.413719e-002	0.0	7.790100e-001	2.212706e-002	0.0	7.919700e-001	2.016644e-002	0.0	8.046400e-001	1.827464e-002	0.0	8.170100e-001	1.646734e-002	0.0	8.290500e-001	1.475980e-002	0.0	8.407700e-001	1.315709e-002	0.0	8.521600e-001	1.166158e-002	0.0	8.631800e-001	1.027250e-002	0.0	8.738500e-001	8.974079e-003	0.0	8.841500e-001	7.749076e-003	0.0	8.940600e-001	6.576560e-003	0.0	9.035800e-001	5.435511e-003	0.0	9.127000e-001	4.316990e-003	0.0	9.214000e-001	3.233651e-003	0.0	9.296900e-001	2.221125e-003	0.0	9.375400e-001	1.344715e-003	0.0	9.449600e-001	6.761332e-004	0.0	9.519400e-001	2.764421e-004	0.0	9.584700e-001	1.658410e-004	0.0	9.645400e-001	3.058119e-004	0.0	9.701500e-001	6.032786e-004	0.0	9.752800e-001	9.355743e-004	0.0	9.799500e-001	1.192069e-003	0.0	9.841300e-001	1.301582e-003	0.0	9.878400e-001	1.250260e-003	0.0	9.910500e-001	1.071035e-003	0.0	9.937800e-001	8.197649e-004	0.0	9.960200e-001	5.546275e-004	0.0	9.977600e-001	3.209629e-004	0.0	9.990000e-001	1.448752e-004	0.0	9.997500e-001	3.632297e-005	0.0	1.000000e+000	0.000000e+000	0.0	1.984229e+001	2.506660e+000	0.0	1.937166e+001	4.973800e+000	0.0	1.859553e+001	7.362490e+000	0.0	1.752613e+001	9.635070e+000	0.0	1.618034e+001	1.175571e+001	0.0	1.457937e+001	1.369094e+001	0.0	1.274848e+001	1.541027e+001	0.0	1.071654e+001	1.688656e+001	0.0	8.515590e+000	1.809654e+001	0.0	6.180340e+000	1.902113e+001	0.0	3.747630e+000	1.964575e+001	0.0	1.255810e+000	1.996053e+001	0.0	-1.255810e+000	1.996053e+001	0.0	-3.747630e+000	1.964574e+001	0.0	-6.180340e+000	1.902113e+001	0.0	-8.515590e+000	1.809654e+001	0.0	-1.071654e+001	1.688656e+001	0.0	-1.274848e+001	1.541026e+001	0.0	-1.457937e+001	1.369094e+001	0.0	-1.618034e+001	1.175570e+001	0.0	-1.752613e+001	9.635070e+000	0.0	-1.859553e+001	7.362490e+000	0.0	-1.937166e+001	4.973800e+000	0.0	-1.984229e+001	2.506660e+000	0.0	-2.000000e+001	0.000000e+000	0.0	-1.984229e+001	-2.506670e+000	0.0	-1.937166e+001	-4.973800e+000	0.0	-1.859553e+001	-7.362490e+000	0.0	-1.752613e+001	-9.635080e+000	0.0	-1.618034e+001	-1.175571e+001	0.0	-1.457937e+001	-1.369094e+001	0.0	-1.274848e+001	-1.541027e+001	0.0	-1.071653e+001	-1.688656e+001	0.0	-8.515580e+000	-1.809654e+001	0.0	-6.180340e+000	-1.902113e+001	0.0	-3.747620e+000	-1.964575e+001	0.0	-1.255810e+000	-1.996053e+001	0.0	1.255810e+000	-1.996053e+001	0.0	3.747630e+000	-1.964574e+001	0.0	6.180340e+000	-1.902113e+001	0.0	8.515590e+000	-1.809654e+001	0.0	1.071654e+001	-1.688656e+001	0.0	1.274848e+001	-1.541026e+001	0.0	1.457937e+001	-1.369094e+001	0.0	1.618034e+001	-1.175570e+001	0.0	1.752614e+001	-9.635070e+000	0.0	1.859553e+001	-7.362490e+000	0.0	1.937166e+001	-4.973790e+000	0.0	1.984229e+001	-2.506660e+000	0.0	2.000000e+001	0.000000e+000	0.0	6.096028e-002	-4.055074e-002	0.0	6.601304e-001	-5.900360e-002	0.0	4.259311e-001	7.131437e-002	0.0	6.901266e-001	4.847038e-002	0.0	3.790200e-001	-6.900944e-002	0.0	9.994681e-001	-7.098886e-004	0.0	9.985600e-001	-1.302919e-003	0.0	7.737739e-001	-4.637630e-002	0.0	6.898178e-001	-5.616366e-002	0.0	-1.457371e-003	7.095701e-003	0.0	7.467453e-001	-4.975172e-002	0.0	5.837621e-001	6.104377e-002	0.0	9.928126e-001	-3.614548e-003	0.0	9.899197e-001	-4.533446e-003	0.0	5.993349e-001	5.951754e-002	0.0	7.187301e-001	-5.304499e-002	0.0	-1.556087e-003	9.553511e-004	0.0	9.865382e-001	-5.554221e-003	0.0	9.826778e-001	-6.676203e-003	0.0	-1.310803e-003	-5.722148e-003	0.0	6.450372e-001	-6.029802e-002	0.0	8.244443e-001	-3.970758e-002	0.0	7.996999e-001	-4.302410e-002	0.0	3.487465e-001	7.295091e-002	0.0	8.478801e-001	-3.641923e-002	0.0	2.473794e-001	7.070519e-002	0.0	8.699455e-001	-3.305401e-002	0.0	9.951596e-003	2.284616e-002	0.0	8.905250e-001	-2.950814e-002	0.0	7.722782e-002	-4.457803e-002	0.0	9.095304e-001	-2.573028e-002	0.0	-1.885908e-003	-2.795345e-003	0.0	9.424551e-001	-1.783137e-002	0.0	9.268674e-001	-2.177941e-002	0.0	1.815453e-002	-2.435895e-002	0.0	4.256195e-001	-6.909087e-002	0.0	8.590935e-001	-3.475094e-002	0.0	9.562581e-001	-1.410506e-002	0.0	9.783336e-001	-7.928419e-003	0.0	9.682332e-001	-1.077015e-002	0.0	1.583776e-001	-5.758877e-002	0.0	9.002325e-001	-2.764767e-002	0.0	7.603926e-001	-4.806708e-002	0.0	9.971433e-001	-2.042694e-003	0.0	5.989495e-001	-6.362322e-002	0.0	4.413174e-001	-6.897567e-002	0.0	5.361879e-001	-6.674539e-002	0.0	4.728822e-001	-6.853151e-002	0.0	5.045406e-001	-6.779377e-002	0.0	4.886988e-001	-6.819919e-002	0.0	1.251054e-001	-5.329339e-002	0.0	2.806570e-002	-2.930131e-002	0.0	3.944586e-001	-6.910847e-002	0.0	4.644414e-002	-3.625
[...]
POINT_DATA 5233

SCALARS Density float 1
LOOKUP_TABLE default
1.182417e+000	1.159806e+000	1.147493e+000	1.138612e+000	1.132018e+000	1.126989e+000	1.122429e+000	1.117716e+000	1.112117e+000	1.105137e+000	1.096372e+000	1.085654e+000	1.072934e+000	1.058330e+000	1.042141e+000	1.024853e+000	1.007135e+000	9.899925e-001	9.746780e-001	9.623700e-001	9.539144e-001	9.494253e-001	9.483161e-001	9.495220e-001	9.518675e-001	9.542763e-001	9.559225e-001	9.562635e-001	9.550198e-001	9.521228e-001	9.476201e-001	9.416408e-001	9.343677e-001	9.260549e-001	9.170074e-001	9.075199e-001	8.978783e-001	8.883625e-001	8.792274e-001	8.706053e-001	8.627636e-001	8.560891e-001	8.509206e-001	8.475006e-001	8.457074e-001	8.452788e-001	8.458381e-001	8.470423e-001	8.485662e-001	8.501335e-001	8.515239e-001	8.527000e-001	8.536358e-001	8.543766e-001	8.548736e-001	8.551206e-001	8.551379e-001	8.549834e-001	8.547069e-001	8.543398e-001	8.539280e-001	8.535089e-001	8.531260e-001	8.528138e-001	8.526232e-001	8.525875e-001	8.527858e-001	8.532404e-001	8.539602e-001	8.548819e-001	8.559973e-001	8.573736e-001	8.591833e-001	8.615061e-001	8.643584e-001	8.676758e-001	8.715484e-001	8.761306e-001	8.814807e-001	8.876388e-001	8.947097e-001	9.027414e-001	9.118534e-001	9.221232e-001	9.336949e-001	9.467850e-001	9.615441e-001	9.782174e-001	9.971519e-001	1.018607e+000	1.043144e+000	1.071385e+000	1.103781e+000	1.141239e+000	1.184108e+000	1.231319e+000	1.278863e+000	1.329635e+000	1.349775e+000	1.349480e+000	1.349816e+000	1.325386e+000	1.263298e+000	1.195269e+000	1.121835e+000	1.052699e+000	9.933417e-001	9.456386e-001	9.089845e-001	8.817402e-001	8.616581e-001	8.468249e-001	8.359757e-001	8.278726e-001	8.216726e-001	8.167377e-001	8.123437e-001	8.079358e-001	8.032778e-001	7.983131e-001	7.931346e-001	7.877435e-001	7.819642e-001	7.756105e-001	7.687681e-001	7.617570e-001	7.548548e-001	7.479648e-001	7.409285e-001	7.337440e-001	7.266686e-001	7.198993e-001	7.135329e-001	7.075028e-001	7.017656e-001	6.962444e-001	6.909157e-001	6.857904e-001	6.808264e-001	6.761024e-001	6.717264e-001	6.678211e-001	6.643384e-001	6.610420e-001	6.577537e-001	6.544795e-001	6.512877e-001	6.484339e-001	6.465949e-001	6.462405e-001	6.438594e-001	6.361257e-001	6.239285e-001	6.812548e-001	8.547673e-001	9.794158e-001	9.790793e-001	9.650119e-001	9.626840e-001	9.655716e-001	9.688067e-001	9.730654e-001	9.789503e-001	9.860106e-001	9.937487e-001	1.001970e+000	1.010433e+000	1.018935e+000	1.027215e+000	1.035152e+000	1.042524e+000	1.049196e+000	1.055057e+000	1.060002e+000	1.064052e+000	1.067280e+000	1.069946e+000	1.072527e+000	1.075721e+000	1.080364e+000	1.087139e+000	1.096243e+000	1.106955e+000	1.117667e+000	1.126298e+000	1.130663e+000	1.128840e+000	1.119661e+000	1.103189e+000	1.081716e+000	1.060343e+000	1.044995e+000	1.040943e+000	1.049682e+000	1.067569e+000	1.089337e+000	1.111425e+000	1.133811e+000	1.155950e+000	1.153242e+000	9.995410e-001	9.998763e-001	9.999097e-001	9.998581e-001	9.998233e-001	9.997795e-001	9.997219e-001	9.996444e-001	9.995571e-001	9.994913e-001	9.994530e-001	9.994835e-001	9.995726e-001	9.997411e-001	9.998830e-001	9.999962e-001	1.000058e+000	1.000096e+000	1.000117e+000	1.000126e+000	1.000129e+000	1.000130e+000	1.000131e+000	1.000133e+000	1.000136e+000	1.000140e+000	1.000149e+000	1.000161e+000	1.000177e+000	1.000201e+000	1.000228e+000	1.000269e+000	1.000306e+000	1.000364e+000	1.000410e+000	1.000455e+000	1.000491e+000	1.000487e+000	1.000475e+000	1.000434e+000	1.000397e+000	1.000345e+000	1.000294e+000	1.000242e+000	1.000192e+000	1.000130e+000	1.000081e+000	1.000091e+000	9.997544e-001	9.993104e-001	9.304769e-001	8.789674e-001	6.605301e-001	9.802281e-001	8.578967e-001	1.162054e+000	1.152017e+000	9.452707e-001	8.966120e-001	1.302041e+000	9.317482e-001	9.720486e-001	1.127147e+000	1.121773e+000	9.936263e-001	9.148547e-001	1.346439e+000	1.116609e+000	1.111053e+000	1.313219e+000	8.708220e-001	9.569425e-001	9.538627e-001	6.793890e-001	9.554856e-001	7.176690e-001	9.535003e-001	1.020085e+000	9.580393e-001	9.101425e-001	9.751250e-001	1.340113e+000	1.035093e+000	1.003288e+000	1.056015e+000	8.574049e-001	9.541671e-001	1.064257e+000	1.104604e+000	1.087662e+000	8.664906e-001	9.648798e-001	9.390537e-001	1.141139e+000	8.531314e-001	8.568044e-001	8.498852e-001	8.550506e-001	8.525338e-001	8.538939e-001	8.773085e-001	1.008686e+000	8.579332e-001	9.562572e-001	8.577796e-001	8.568838e-001	8.574886e-001	9.890599e-001	8.563975e-001	1.019217e+000	8.695525e-001	8.604939e-001	9.017032e-001	8.877459e-001	8.492061e-001	8.640016e-001	8.575194e-001	9.544708e-001	1.030860e+000	1.133426e+000	1.152890e+000	9.366972e-001	9.882376e-001	1.050259e+000	1.096892e+000	1.252947e+000	9.566168e-001	8.566416e-001	8.491537e-001	9.235856e-001	9.502406e-001	8.821206e-001	8.580493e-001	8.504300e-001	8.876354e-001	9.426083e-001	1.192693e+000	1.084491e+000	8.577376e-001	8.620659e-001	1.195377e+000	8.572034e-001	8.942677e-001	8.566018e-001	8.563639e-001	8.560131e-001	9.057613e-001	1.339263e+000	1.276883e+000	6.319416e-001	1.345708e+000	8.844645e-001	8.354271e-001	8.536091e-001	7.941304e-001	6.639346e-001	1.104385e+000	6.444268e-001	6.514270e-001	1.090062e+000	1.114622e+000	1.074997e+000	6.499213e-001	6.572204e-001	6.710269e-001	1.100102e+000	1.084774e+000	8.173914e-001	1.074522e+000	1.119774e+000	1.115599e+000	8.059221e-001	8.288783e-001	7.000784e-001	7.115773e-001	7.595600e-001	6.893105e-001	6.540798e-001	6.674134e-001	7.737720e-001	7.877716e-001	9.668561e-001	7.452193e-001	7.308385e-001	9.719661e-001	7.520719e-001	1.008815e+000	9.934689e-001	1.039322e+000	1.024588e+000	1.061512e+000	1.051865e+000	1.079220e+000	1.068549e+000	1.119811e+000	1.091860e+000	1.104335e+000	1.065274e+000	1.071627e+000	1.045925e+000	1.057058e+000	1.016754e+000	1.032184e+000	9.864537e-001	1.000984e+000	9.689079e-001	9.753512e-001	6.348431e-001	9.742713e-001	7.379480e-001	7.240926e-001	7.666339e-001	7.524756e-001	8.433836e-001	7.809386e-001	9.740607e-001	8.669848e-001	8.591693e-001	1.133421e+000	1.076773e+000	9.560869e-001	8.571902e-001	8.511210e-001	1.195529e+000	9.072344e-001	1.073791e+000	8.116975e-001	8.230248e-001	7.057210e-001	8.001041e-001	1.061781e+000	1.055787e+000	6.946084e-001	1.058906e+000	1.070006e+000	6.842364e-001	6.749762e-001	1.108507e+000	1.169880e+000	1.123629e+000	1.141243e+000	8.635335e-001	9.716684e-001	1.086182e+000	6.498416e-001	1.235283e+000	1.116788e+000	9.196925e-001	8.731654e-001	8.562971e-001	8.342880e-001	1.275928e+000	1.314865e+000	8.604415e-001	9.048064e-001	9.883286e-001	1.152569e+000	9.049561e-001	8.962143e-001	9.483188e-001	1.115711e+000	8.606354e-001	9.580879e-001	9.581287e-001	9.092315e-001	1.291551e+000	8.639469e-001	1.090276e+000	1.068312e+000	8.753979e-001	9.133897e-001	8.796391e-001	8.595643e-001	9.179903e-001	8.611222e-001	9.687319e-001	9.524335e-001	1.080364e+000	9.575264e-001	9.779598e-001	1.058703e+000	8.078113e-001	9.819833e-001	7.724970e-001	1.070094e+000	1.068224e+000	6.885811e-001	6.514013e-001	1.111170e+000	1.073673e+000	1.073556e+000	1.108958e+000	1.074566e+000	7.294824e-001	6.938236e-001	7.362593e-001	8.142340e-001	8.877650e-001	8.655412e-001	1.033765e+000	7.868835e-001	8.595083e-001	1.094389e+000	1.084137e+000	1.077640e+000	8.721238e-001	1.185230e+000	1.112539e+000	1.097480e+000	1.130718e+000	1.232715e+000	1.187343e+000	1.336637e+000	1.339568e+000	1.063277e+000	1.196592e+000	9.388850e-001	1.142125e+000	1.127141e+000	6.675975e-001	8.535529e-001	1.110033e+000	9.596574e-001	9.956412e-001	1.121285e+000	1.320981e+000	8.602223e-001	6.713216e-001	9.582388e-001	7.107159e-001	9.583041e-001	9.629363e-001	9.278340e-001	9.772903e-001	1.001243e+000	1.043198e+000	1.017490e+000	1.056296e+000	1.079087e+000	1.103788e+000	8.837364e-001	9.367980e-001	9.430928e-001	1.133984e+000	8.587589e-001	8.578235e-001	8.566514e-001	1.039220e+000	8.610174e-001	8.607262e-001	8.608172e-001	9.806932e-001	1.015162e+000	1.029344e+000	8.792740e-001	9.014771e-001	8.534604e-001	8.602052e-001	1.088532e+000	1.096715e+000	9.216985e-001	9.296030e-001	8.947251e-001	8.888389e-001	8.543414e-001	8.564973e-001	9.652246e-001	9.513350e-001	1.119937e+000	8.609819e-001	8.610937e-001	8.695324e-001	8.673742e-001	8.626719e-001	8.616900e-001	8.604017e-001	8.604912e-001	8.610354e-001	1.336153e+000	1.224055e+000	8.713722e-001	1.068502e+000	6.390149e-001	6.543059e-001	6.560411e-001	6.580818e-001	1.084073e+000	1.103181e+000	1.094118e+000	6.609438e-001	6.641176e-001	6.752889e-001	1.087888e+000	1.110002e+000	8.415915e-001	8.498112e-001	7.230001e-001	7.167215e-001	7.796765e-001	7.941995e-001	8.012066e-001	1.036268e+000	1.007647e+000	1.000506e+000	1.029479e+000	1.053944e+000	1.082325e+000	1.066589e+000	1.062827e+000	1.048664e+000	1.042760e+000	1.022281e+000	1.014965e+000	9.937076e-001	9.874505e-001	9.755246e-001	9.731209e-001	6.780628e-001	6.313557e-001	9.721268e-001	9.828915e-001	7.432142e-001	7.504751e-001	7.578527e-001	7.652800e-001	9.926591e-001	8.863784e-001	9.053644e-001	9.554225e-001	9.572785e-001	8.554129e-001	8.542805e-001	1.183159e+000	9.288040e-001	8.207264e-001	8.273839e-001	6.992385e-001	7.048749e-001	6.794068e-001	6.837930e-001	1.106130e+000	1.100491e+000	8.654560e-001	8.720850e-001	9.980124e-001	1.259846e+000	8.606213e-001	1.298705e+000	8.646411e-001	8.647993e-001	9.515562e-001	8.585006e-001	1.000596e+000	1.078173e+000	1.075363e+000	1.100103e+000	1.173982e+000	1.085284e+000	1.127143e+000	1.147862e+000	1.133715e+000	1.175462e+000	1.069728e+000	1.315170e+000	9.171162e-001	1.012774e+000	1.115052e+000	8.092297e-001	1.152744e+000	1.182355e+000	9.131138e-001	1.244968e+000	9.209522e-001	1.094748e+000	9.641789e-001	1.151479e+000	8.646508e-001	9.623787e-001	9.050635e-001	1.121076e+000	1.122274e+000	1.081421e+000	6.490656e-001	1.103928e+000	9.809143e-001	1.094866e+000	6.562550e-001	7.223891e-001	6.987973e-001	7.866699e-001	8.541697e-001	1.139488e+000	1.270055e+000	1.251244e+000	1.008226e+000	1.289644e+000	1.071784e+000	9.261159e-001	1.331972e+000	8.813605e-001	8.627342e-001	1.046787e+000	1.086233e+000	1.055747e+000	1.033592e+000	9.839209e-001	1.076620e+000	1.103255e+000	1.075387e+000	1.071548e+000	7.043718e-001	7.161381e-001	7.423360e-001	8.232535e-001	8.890669e-001	8.969888e-001	8.706988e-001	1.045575e+000	7.937933e-001	1.088030e+000	1.104722e+000	1.129653e+000	1.216217e+000	1.213951e+000	1.316043e+000	1.025608e+000	1.167419e+000	1.158054e+000	1.081102e+000	1.109337e+000	9.848162e-001	8.633999e-001	6.756607e-001	9.604845e-001	9.613359e-001	9.674108e-001	9.725517e-001	9.474777e-001	9.362211e-001	9.799080e-001	9.894056e-001	1.050086e+000	1.061425e+000	1.103353e+000	9.417826e-001	9.471196e-001	1.126998e+000	8.619693e-001	8.610899e-001	8.644294e-001	8.639772e-001	1.006647e+000	1.025396e+000	1.037954e+000	8.903967e-001	8.855697e-001	8.583629e-001	8.590627e-001	1.089399e+000	1.096722e+000	9.284770e-001	9.355171e-001	9.091202e-001	9.019305e-001	8.957308e-001	8.608195e-001	8.639647e-001	9.897330e-001	9.742275e-001	9.600970e-001	8.646927e-001	8.647222e-001	8.647131e-001	8.780549e-001	8.752530e-001	8.728383e-001	8.689518e-001	8.675110e-001	8.646648e-001	8.646088e-001	8.664442e-001	8.882359e-001	6.607745e-001	6.632085e-001	1.094729e+000	6.656314e-001	6.685622e-001	6.718744e-001	6.798360e-001	1.089204e+000	8.638267e-001	8.750394e-001	7.287707e-001	7.355039e-001	8.010400e-001	8.087769e-001	8.162838e-001	1.006911e+000	1.084259e+000	1.079573e+000	1.067827e+000	1.064117e+000	1.060190e+000	1.050874e+000	1.045535e+000	1.039801e+000	1.027122e+000	1.020467e+000	1.013630e+000	1.000398e+000	9.941979e-001	9.886342e-001	9.790851e-001	6.477105e-001	6.340938e-001	9.762631e-001	9.772044e-001	9.924848e-001	7.494030e-001	7.565002e-001	7.639495e-001	7.715616e-001	7.792941e-001	9.041691e-001	9.239399e-001	9.550522e-001	9.576321e-001	9.593695e-001	8.600644e-001	8.591187e-001	9.478577e-001	9.756377e-001	8.302395e-001	8.376973e-001	8.455972e-001	7.101789e-001	6.844005e-001	6.890186e-001	6.937310e-001	1.102290e+000	1.098850e+000	1.094306e+000	8.685521e-001	8.745053e-001	8.814753e-001	8.656367e-001	8.651302e-001	1.276643e+000	9.251597e-001	1.100234e+000	1.081803e+000	8.631148e-001	1.291547e+000	1.140170e+000	1.011981e+000	1.023280e+000	1.032480e+000	1.086124e+000	6.627691e-001	1.250701e+000	1.054066e+000	1.174655e+000	1.096216e+000	1.092492e+000	1.229941e+000	9.813538e-001	1.199411e+000	1.151911e+000	1.169643e+000	9.548658e-001	8.882942e-001	1.074585e+000	8.686979e-001	9.344232e-001	8.671521e-001	8.697917e-001	1.080493e+000	7.256129e-001	1.097606e+000	1.097387e+000	1.030817e+000	8.022082e-001	7.361294e-001	1.108832e+000	8.773388e-001	9.686355e-001	1.115340e+000	1.081864e+000	1.126384e+000	1.082632e+000	1.097280e+000	9.133268e-001	1.202083e+000	9.212855e-001	9.279537e-001	1.122165e+000	1.114504e+000	1.148182e+000	1.052659e+000	6.532113e-001	7.168616e-001	1.264450e+000	1.089411e+000	9.848480e-001	1.072666e+000	7.111465e-001	7.231642e-001	7.293686e-001	8.980413e-001	9.063811e-001	1.085114e+000	1.125814e+000	1.163479e+000	1.228630e+000	1.294931e+000	1.052752e+000	1.074473e+000	1.102987e+000	9.410041e-001	9.643022e-001	9.660961e-001	9.720016e-001	9.769348e-001	9.559277e-001	9.446230e-001	9.834295e-001	9.916898e-001	1.001413e+000	1.055703e+000	1.065522e+000	9.462743e-001	9.510923e-001	1.120366e+000	8.665171e-001	8.658385e-001	8.681983e-001	8.677119e-001	1.034422e+000	1.045200e+000	8.977323e-001	8.922518e-001	8.645858e-001	1.089991e+000	1.096765e+000	9.349197e-001	9.417270e-001	9.168613e-001	9.095954e-001	9.034602e-001	8.650560e-001	8.686950e-001	1.014834e+000	9.981546e-001	9.824370e-001	9.683522e-001	8.691512e-001	8.690730e-001	8.689672e-001	8.688266e-001	8.848328e-001	8.817814e-001	8.789645e-001	8.766511e-001	8.746599e-001	8.693021e-001	8.694592e-001	8.731296e-001	6.686092e-001	1.089307e+000	1.093282e+000	6.721526e-001	6.746720e-001	6.779413e-001	6.814260e-001	6.857870e-001	8.900680e-001	9.048675e-001	7.427755e-001	7.500003e-001	8.094072e-001	8.168130e-001	8.250034e-001	8.330263e-001	1.084870e+000	1.080610e+000	1.076725e+000	1.068974e+000	1.065104e+000	1.061461e+000	1.056404e+000	1.048120e+000	1.042016e+000	1.037023e+000	1.024793e+000	1.018409e+000	1.012112e+000	1.006003e+000	9.999074e-001	9.945363e-001	9.890600e-001	6.468620e-001	6.491265e-001	9.794831e-001	9.785966e-001	9.891149e-001	9.990359e-001	7.569475e-001	7.642384e-001	7.712121e-001	7.787144e-001	7.863673e-001	7.943012e-001	9.213886e-001	9.408081e-001	9.581580e-001	9.607954e-001	9.625906e-001	8.649956e-001	8.636371e-001	8.640173e-001	9.645434e-001	9.913937e-001	1.020762e+000	8.405880e-001	8.483401e-001	8.571909e-001	8.667598e-001	6.903228e-001	6.955105e-001	7.005809e-001	7.055551e-001	1.088898e+000	1.095575e+000	1.092734e+000	8.716318e-001	8.779158e-001	8.833621e-001	8.913432e-001	8.718430e-001	8.709308e-001	8.702184e-001	1.121206e+000	1.097700e+000	1.076713e+000	1.144590e+000	1.144425e+000	9.313606e-001	9.335289e-001	1.167519e+000	1.084264e+000	1.213951e+000	1.057514e+000	8.960933e-001	8.194239e-001	1.091754e+000	1.185357e+000	1.264542e+000	1.310179e+000	1.310629e+000	1.300889e+000	1.233534e+000	1.122031e+000	7.250222e-001	1.083908e+000	1.108431e+000	1.031989e+000	9.566355e-001	8.727728e-001	1.090915e+000	1.084613e+000	1.091467e+000	6.709500e-001	6.564095e-001	9.811454e-001	1.024651e+000	6.714745e-001	8.690878e-001	7.175875e-001	1.086773e+000	9.429292e-001	1.132943e+000	1.083382e+000	1.302658e+000	1.163457e+000	1.154067e+000	1.021592e+000	1.039307e+000	1.254969e+000	1.060679e+000	1.190950e+000	1.092000e+000	1.212124e+000	1.147840e+000	1.155485e+000	1.099196e+000	8.738734e-001	8.750449e-001	1.084139e+000	8.468938e-001	1.092404e+000	1.102702e+000	9.181214e-001	1.240646e+000	7.297442e-001	7.378349e-001	7.429821e-001	9.037485e-001	1.122876e+000	1.154558e+000	1.270936e+000	1.078500e+000	9.697498e-001	9.717786e-001	9.765448e-001	9.803667e-001	9.531588e-001	9.649315e-001	9.875328e-001	9.937987e-001	1.003195e+000	1.013090e+000	1.060446e+000	1.068908e+000	9.488882e-001	1.113796e+000	8.707798e-001	8.709105e-001	8.717010e-001	8.719151e-001	1.042393e+000	1.051389e+000	9.048236e-001	8.986043e-001	1.090623e+000	1.096860e+000	9.416891e-001	9.247697e-001	9.165910e-001	9.122999e-001	8.717176e-001	1.022347e+000	1.005965e+000	9.905644e-001	9.774705e-001	8.742559e-001	8.733422e-001	8.737478e-001	8.728519e-001	8.733214e-001	8.911112e-001	8.888498e-001	8.845779e-001	8.830779e-001	8.799118e-001	1.086207e+000	1.088560e+000	1.090647e+000	6.772238e-001	6.816802e-001	6.842315e-001	6.888389e-001	6.915029e-001	9.049521e-001	9.207538e-001	7.516824e-001	7.572207e-001	8.244352e-001	8.338716e-001	8.431339e-001	1.080267e+000	1.077161e+000	1.072898e+000	1.069647e+000	1.065372e+000	1.062144e+000	1.057358e+000	1.051073e+000	1.044269e+000	1.035742e+000	1.012940e+000	1.001703e+000	9.905172e-001	9.875764e-001	9.937214e-001	7.662802e-001	7.717725e-001	7.807368e-001	7.859700e-001	7.950475e-001	8.029730e-001	8.110993e-001	9.381828e-001	9.570406e-001	9.622422e-001	9.643969e-001	9.670182e-001	8.700273e-001	8.687608e-001	9.791153e-001	1.005026e+000	1.031770e+000	8.518187e-001	8.602961e-001	8.695438e-001	8.808566e-001	8.924787e-001	6.973929e-001	7.011258e-001	7.077625e-001	7.136164e-001	1.089949e+000	1.086530e+000	8.784475e-001	8.897339e-001	8.790978e-001	8.767603e-001	8.765093e-001	8.748897e-001	1.146155e+000	1.122432e+000	1.159985e+000	1.275954e+000	1.161633e+000	1.084890e+000	1.086942e+000	1.219858e+000	1.087305e+000	1.124251e+000	1.096948e+000	1.250569e+000	1.061746e+000	1.139616e+000	7.289177e-001	1.145495e+000	1.119403e+000	1.195665e+000	1.119313e+000	1.078470e+000	8.743317e-001	1.085101e+000	8.790865e-001	1.039570e+000	1.025920e+000	8.901603e-001	9.417316e-001	9.004024e-001	1.216879e+000	8.760789e-001	9.628015e-001	9.523045e-001	8.388725e-001	1.084623e+000	1.080201e+000	1.241299e+000	1.092452e+000	1.071671e+000	1.138511e+000	1.084320e+000	1.306675e+000	1.234744e+000	1.102550e+000	9.399523e-001	6.676889e-001	6.839608e-001	1.089946e+000	1.148091e+000	1.101735e+000	1.279244e+000	1.157467e+000	1.045254e+000	1.199515e+000	1.180115e+000	7.599285e-001	1.080460e+000	1.087786e+000	1.086697e+000	6.676180e-001	7.413799e-001	7.552806e-001	9.290344e-001	1.146187e+000	1.172109e+000	1.100301e+000	9.775010e-001	9.870203e-001	9.735100e-001	1.000194e+000	1.014163e+000	1.064333e+000	1.108033e+000	8.753801e-001	1.048860e+000	1.056532e+000	9.088619e-001	1.090999e+000	9.482319e-001	9.553684e-001	9.291209e-001	9.195117e-001	8.761727e-001	1.029166e+000	1.012466e+000	9.974830e-001	9.878932e-001	8.781869e-001	8.775067e-001	8.773804e-001	8.928699e-001	8.871224e-001	1.085504e+000	1.086546e+000	6.929736e-001	7.013217e-001	9.353313e-001	7.700511e-001	8.530241e-001	1.038831e+000	1.074149e+000	1.067067e+000	1.059842e+000	1.052635e+000	1.046192e+000	1.029481e+000	1.018746e+000	1.008177e+000	9.974882e-001	9.853167e-001	9.825827e-001	9.971146e-001	9.559373e-001	7.850347e-001	7.994234e-001	8.128240e-001	8.188034e-001	8.288411e-001	9.539868e-001	9.724611e-001	9.621772e-001	9.674731e-001	9.725535e-001	8.751671e-001	8.743875e-001	9.924233e-001	1.016009e+000	1.040963e+000	1.065891e+000	8.636400e-001	8.728899e-001	8.825298e-001	8.942078e-001	9.089935e-001	9.183381e-001	7.106643e-001	7.207390e-001	1.086856e+000	1.084179e+000	8.811112e-001	9.025555e-001	9.161394e-001	8.831458e-001	8.806030e-001	1.093561e+000	1.146734e+000	1.142139e+000	1.107418e+000	1.012449e+000	1.088557e+000	1.142597e+000	1.119790e+000	1.169857e+000	1.117244e+000	1.129874e+000	1.112562e+000	1.138649e+000	1.220255e+000	1.231251e+000	1.083648e+000	9.473834e-001	7.360492e-001	1.098655e+000	1.012421e+000	1.081958e+000	9.413488e-001	1.116050e+000	1.152597e+000	8.814380e-001	1.046231e+000	9.026053e-001	8.810293e-001	1.079959e+000	1.085805e+000	1.065339e+000	1.051064e+000	1.139347e+000	1.084745e+000	1.086154e+000	1.083763e+000	7.606823e-001	8.960919e-001	9.273686e-001	9.811457e-001	1.119368e+000	1.125947e+000	1.284556e+000	1.073812e+000	1.083699e+000	1.155713e+000	1.091459e+000	1.201470e+000	1.134626e+000	8.797414e-001	1.216599e+000	9.731733e-001	9.602602e-001	1.083971e+000	1.253955e+000	1.067446e+000	1.096897e+000	9.383716e-001	1.256720e+000	1.156889e+000	9.948280e-001	1.201616e+000	1.186267e+000	6.