# vtk DataFile Version 3.0
vtk output
ASCII
DATASET UNSTRUCTURED_GRID
POINTS 5233 float
9.997500e-001	-3.633515e-005	0.0	9.990000e-001	-1.456440e-004	0.0	9.977600e-001	-3.293855e-004	0.0	9.960200e-001	-6.000248e-004	0.0	9.937800e-001	-9.833393e-004	0.0	9.910500e-001	-1.521307e-003	0.0	9.878400e-001	-2.267959e-003	0.0	9.841300e-001	-3.281572e-003	0.0	9.799500e-001	-4.579540e-003	0.0	9.752800e-001	-6.142047e-003	0.0	9.701500e-001	-7.873635e-003	0.0	9.645400e-001	-9.651283e-003	0.0	9.584700e-001	-1.133092e-002	0.0	9.519400e-001	-1.280919e-002	0.0	9.449600e-001	-1.404307e-002	0.0	9.375400e-001	-1.505650e-002	0.0	9.296900e-001	-1.591996e-002	0.0	9.214000e-001	-1.672083e-002	0.0	9.127000e-001	-1.752937e-002	0.0	9.035800e-001	-1.839044e-002	0.0	8.940600e-001	-1.931380e-002	0.0	8.841500e-001	-2.028460e-002	0.0	8.738500e-001	-2.127417e-002	0.0	8.631800e-001	-2.224748e-002	0.0	8.521600e-001	-2.317283e-002	0.0	8.407700e-001	-2.402907e-002	0.0	8.290500e-001	-2.479903e-002	0.0	8.170100e-001	-2.547666e-002	0.0	8.046400e-001	-2.606387e-002	0.0	7.919700e-001	-2.656601e-002	0.0	7.790100e-001	-2.699348e-002	0.0	7.657800e-001	-2.735894e-002	0.0	7.522800e-001	-2.767695e-002	0.0	7.385200e-001	-2.796229e-002	0.0	7.245300e-001	-2.822929e-002	0.0	7.103200e-001	-2.849221e-002	0.0	6.958900e-001	-2.876460e-002	0.0	6.812700e-001	-2.905845e-002	0.0	6.664700e-001	-2.938487e-002	0.0	6.515000e-001	-2.975368e-002	0.0	6.363800e-001	-3.017304e-002	0.0	6.211300e-001	-3.064955e-002	0.0	6.057600e-001	-3.118855e-002	0.0	5.902800e-001	-3.179391e-002	0.0	5.747100e-001	-3.246757e-002	0.0	5.590600e-001	-3.321036e-002	0.0	5.433600e-001	-3.402070e-002	0.0	5.276100e-001	-3.489711e-002	0.0	5.118400e-001	-3.583530e-002	0.0	4.960500e-001	-3.683158e-002	0.0	4.802700e-001	-3.787946e-002	0.0	4.645100e-001	-3.897283e-002	0.0	4.487800e-001	-4.010496e-002	0.0	4.331100e-001	-4.126709e-002	0.0	4.175000e-001	-4.245217e-002	0.0	4.019700e-001	-4.365137e-002	0.0	3.865400e-001	-4.485555e-002	0.0	3.712300e-001	-4.605535e-002	0.0	3.560400e-001	-4.724289e-002	0.0	3.409900e-001	-4.840859e-002	0.0	3.261100e-001	-4.954212e-002	0.0	3.114000e-001	-5.063541e-002	0.0	2.968700e-001	-5.167957e-002	0.0	2.825500e-001	-5.266435e-002	0.0	2.684500e-001	-5.358099e-002	0.0	2.545700e-001	-5.442132e-002	0.0	2.409400e-001	-5.517537e-002	0.0	2.275700e-001	-5.583456e-002	0.0	2.144700e-001	-5.639033e-002	0.0	2.016600e-001	-5.683383e-002	0.0	1.891400e-001	-5.715710e-002	0.0	1.769300e-001	-5.735164e-002	0.0	1.650400e-001	-5.740952e-002	0.0	1.534900e-001	-5.732313e-002	0.0	1.422900e-001	-5.708540e-002	0.0	1.314400e-001	-5.668921e-002	0.0	1.209500e-001	-5.612783e-002	0.0	1.108500e-001	-5.539661e-002	0.0	1.011300e-001	-5.448906e-002	0.0	9.181000e-002	-5.340153e-002	0.0	8.290000e-002	-5.213068e-002	0.0	7.440000e-002	-5.067241e-002	0.0	6.633000e-002	-4.902700e-002	0.0	5.869000e-002	-4.719235e-002	0.0	5.149000e-002	-4.516950e-002	0.0	4.474000e-002	-4.296133e-002	0.0	3.844000e-002	-4.056885e-002	0.0	3.260000e-002	-3.799791e-002	0.0	2.723000e-002	-3.525716e-002	0.0	2.232000e-002	-3.234599e-002	0.0	1.790000e-002	-2.928981e-002	0.0	1.395000e-002	-2.608436e-002	0.0	1.049000e-002	-2.275657e-002	0.0	7.520000e-003	-1.932294e-002	0.0	5.040000e-003	-1.580273e-002	0.0	3.050000e-003	-1.221827e-002	0.0	1.560000e-003	-8.622704e-003	0.0	5.600000e-004	-5.036490e-003	0.0	6.000000e-005	-1.560297e-003	0.0	0.000000e+000	0.000000e+000	0.0	6.000000e-005	1.508532e-003	0.0	5.600000e-004	4.669087e-003	0.0	1.560000e-003	7.734531e-003	0.0	3.050000e-003	1.066272e-002	0.0	5.040000e-003	1.347223e-002	0.0	7.520000e-003	1.615183e-002	0.0	1.049000e-002	1.871209e-002	0.0	1.395000e-002	2.116281e-002	0.0	1.790000e-002	2.351285e-002	0.0	2.232000e-002	2.576043e-002	0.0	2.723000e-002	2.792371e-002	0.0	3.260000e-002	2.999587e-002	0.0	3.844000e-002	3.198658e-002	0.0	4.474000e-002	3.389587e-002	0.0	5.149000e-002	3.572325e-002	0.0	5.869000e-002	3.746984e-002	0.0	6.633000e-002	3.913312e-002	0.0	7.440000e-002	4.071012e-002	0.0	8.290000e-002	4.219919e-002	0.0	9.181000e-002	4.359473e-002	0.0	1.011300e-001	4.489441e-002	0.0	1.108500e-001	4.609411e-002	0.0	1.209500e-001	4.718885e-002	0.0	1.314400e-001	4.817714e-002	0.0	1.422900e-001	4.905377e-002	0.0	1.534900e-001	4.981628e-002	0.0	1.650400e-001	5.046320e-002	0.0	1.769300e-001	5.099277e-002	0.0	1.891400e-001	5.140362e-002	0.0	2.016600e-001	5.169566e-002	0.0	2.144700e-001	5.186939e-002	0.0	2.275700e-001	5.192643e-002	0.0	2.409400e-001	5.186895e-002	0.0	2.545700e-001	5.170003e-002	0.0	2.684500e-001	5.142355e-002	0.0	2.825500e-001	5.104471e-002	0.0	2.968700e-001	5.056888e-002	0.0	3.114000e-001	5.000229e-002	0.0	3.261100e-001	4.935274e-002	0.0	3.409900e-001	4.862798e-002	0.0	3.560400e-001	4.783566e-002	0.0	3.712300e-001	4.698538e-002	0.0	3.865400e-001	4.608660e-002	0.0	4.019700e-001	4.514767e-002	0.0	4.175000e-001	4.417797e-002	0.0	4.331100e-001	4.318661e-002	0.0	4.487800e-001	4.218214e-002	0.0	4.645100e-001	4.117105e-002	0.0	4.802700e-001	4.016072e-002	0.0	4.960500e-001	3.915606e-002	0.0	5.118400e-001	3.816065e-002	0.0	5.276100e-001	3.717787e-002	0.0	5.433600e-001	3.620778e-002	0.0	5.590600e-001	3.525096e-002	0.0	5.747100e-001	3.430498e-002	0.0	5.902800e-001	3.336838e-002	0.0	6.057600e-001	3.243801e-002	0.0	6.211300e-001	3.151131e-002	0.0	6.363800e-001	3.058562e-002	0.0	6.515000e-001	2.965920e-002	0.0	6.664700e-001	2.873222e-002	0.0	6.812700e-001	2.780639e-002	0.0	6.958900e-001	2.688424e-002	0.0	7.103200e-001	2.596945e-002	0.0	7.245300e-001	2.506750e-002	0.0	7.385200e-001	2.418161e-002	0.0	7.522800e-001	2.331425e-002	0.0	7.657800e-001	2.246667e-002	0.0	7.790100e-001	2.163543e-002	0.0	7.919700e-001	2.081255e-002	0.0	8.046400e-001	1.998724e-002	0.0	8.170100e-001	1.914451e-002	0.0	8.290500e-001	1.826834e-002	0.0	8.407700e-001	1.733875e-002	0.0	8.521600e-001	1.633733e-002	0.0	8.631800e-001	1.525042e-002	0.0	8.738500e-001	1.406190e-002	0.0	8.841500e-001	1.276405e-002	0.0	8.940600e-001	1.135701e-002	0.0	9.035800e-001	9.849607e-003	0.0	9.127000e-001	8.268898e-003	0.0	9.214000e-001	6.666574e-003	0.0	9.296900e-001	5.113958e-003	0.0	9.375400e-001	3.709607e-003	0.0	9.449600e-001	2.548769e-003	0.0	9.519400e-001	1.709581e-003	0.0	9.584700e-001	1.222081e-003	0.0	9.645400e-001	1.051593e-003	0.0	9.701500e-001	1.103845e-003	0.0	9.752800e-001	1.252299e-003	0.0	9.799500e-001	1.378264e-003	0.0	9.841300e-001	1.402004e-003	0.0	9.878400e-001	1.298752e-003	0.0	9.910500e-001	1.091510e-003	0.0	9.937800e-001	8.269528e-004	0.0	9.960200e-001	5.565750e-004	0.0	9.977600e-001	3.213184e-004	0.0	9.990000e-001	1.449074e-004	0.0	9.997500e-001	3.632347e-005	0.0	1.000000e+000	0.000000e+000	0.0	1.984229e+001	2.506660e+000	0.0	1.937166e+001	4.973800e+000	0.0	1.859553e+001	7.362490e+000	0.0	1.752613e+001	9.635070e+000	0.0	1.618034e+001	1.175571e+001	0.0	1.457937e+001	1.369094e+001	0.0	1.274848e+001	1.541027e+001	0.0	1.071654e+001	1.688656e+001	0.0	8.515590e+000	1.809654e+001	0.0	6.180340e+000	1.902113e+001	0.0	3.747630e+000	1.964575e+001	0.0	1.255810e+000	1.996053e+001	0.0	-1.255810e+000	1.996053e+001	0.0	-3.747630e+000	1.964574e+001	0.0	-6.180340e+000	1.902113e+001	0.0	-8.515590e+000	1.809654e+001	0.0	-1.071654e+001	1.688656e+001	0.0	-1.274848e+001	1.541026e+001	0.0	-1.457937e+001	1.369094e+001	0.0	-1.618034e+001	1.175570e+001	0.0	-1.752613e+001	9.635070e+000	0.0	-1.859553e+001	7.362490e+000	0.0	-1.937166e+001	4.973800e+000	0.0	-1.984229e+001	2.506660e+000	0.0	-2.000000e+001	0.000000e+000	0.0	-1.984229e+001	-2.506670e+000	0.0	-1.937166e+001	-4.973800e+000	0.0	-1.859553e+001	-7.362490e+000	0.0	-1.752613e+001	-9.635080e+000	0.0	-1.618034e+001	-1.175571e+001	0.0	-1.457937e+001	-1.369094e+001	0.0	-1.274848e+001	-1.541027e+001	0.0	-1.071653e+001	-1.688656e+001	0.0	-8.515580e+000	-1.809654e+001	0.0	-6.180340e+000	-1.902113e+001	0.0	-3.747620e+000	-1.964575e+001	0.0	-1.255810e+000	-1.996053e+001	0.0	1.255810e+000	-1.996053e+001	0.0	3.747630e+000	-1.964574e+001	0.0	6.180340e+000	-1.902113e+001	0.0	8.515590e+000	-1.809654e+001	0.0	1.071654e+001	-1.688656e+001	0.0	1.274848e+001	-1.541026e+001	0.0	1.457937e+001	-1.369094e+001	0.0	1.618034e+001	-1.175570e+001	0.0	1.752614e+001	-9.635070e+000	0.0	1.859553e+001	-7.362490e+000	0.0	1.937166e+001	-4.973790e+000	0.0	1.984229e+001	-2.506660e+000	0.0	2.000000e+001	0.000000e+000	0.0	6.055903e-002	-5.486675e-002	0.0	6.596900e-001	-4.356926e-002	0.0	4.261311e-001	5.814569e-002	0.0	6.895523e-001	4.081708e-002	0.0	3.797815e-001	-5.979978e-002	0.0	9.994668e-001	-7.270737e-004	0.0	9.985548e-001	-1.333820e-003	0.0	7.732206e-001	-3.929505e-002	0.0	6.892813e-001	-4.254271e-002	0.0	-1.742795e-003	7.064419e-003	0.0	7.461582e-001	-4.050481e-002	0.0	5.834665e-001	4.823846e-002	0.0	9.928358e-001	-3.825467e-003	0.0	9.899705e-001	-4.925740e-003	0.0	5.989884e-001	4.720699e-002	0.0	7.181453e-001	-4.155041e-002	0.0	-1.827028e-003	7.813190e-004	0.0	9.866263e-001	-6.236309e-003	0.0	9.828081e-001	-7.765844e-003	0.0	-1.893552e-003	-7.820818e-003	0.0	6.446602e-001	-4.412185e-002	0.0	8.240237e-001	-3.603491e-002	0.0	7.992070e-001	-3.783984e-002	0.0	3.491058e-001	6.211326e-002	0.0	8.475242e-001	-3.387555e-002	0.0	2.478155e-001	6.430384e-002	0.0	8.696420e-001	-3.140985e-002	0.0	9.824789e-003	2.307671e-002	0.0	8.902712e-001	-2.878355e-002	0.0	7.697950e-002	-5.900125e-002	0.0	9.093436e-001	-2.616070e-002	0.0	-2.261217e-003	-3.812204e-003	0.0	9.425053e-001	-2.075789e-002	0.0	9.267841e-001	-2.356500e-002	0.0	1.738883e-002	-3.459574e-002	0.0	4.262631e-001	-5.652013e-002	0.0	8.587652e-001	-3.267152e-002	0.0	9.564267e-001	-1.739362e-002	0.0	9.785048e-001	-9.529932e-003	0.0	9.684469e-001	-1.346151e-002	0.0	1.587852e-001	-6.800311e-002	0.0	9.000085e-001	-2.746503e-002	0.0	7.598185e-001	-3.992607e-002	0.0	9.971394e-001	-2.100082e-003	0.0	5.988064e-001	-4.602287e-002	0.0	4.419137e-001	-5.541893e-002	0.0	5.363949e-001	-4.925789e-002	0.0	4.733715e-001	-5.325175e-002	0.0	5.049022e-001	-5.117973e-002	0.0	4.891276e-001	-5.219980e-002	0.0	1.252720e-001	-6.597808e-002	0.0	2.736222e-002	-4.126411e-002	0.0	3.951850e-001	-5.871910e-002	0.0	4.590250e-002	-4.998
[...]
POINT_DATA 5233

SCALARS Density float 1
LOOKUP_TABLE default
1.170538e+000	1.155382e+000	1.148405e+000	1.145358e+000	1.143592e+000	1.140643e+000	1.133068e+000	1.118397e+000	1.094352e+000	1.060230e+000	1.017242e+000	9.658221e-001	9.145463e-001	8.835571e-001	8.791358e-001	8.925136e-001	9.122873e-001	9.296444e-001	9.401600e-001	9.435482e-001	9.412349e-001	9.351197e-001	9.271267e-001	9.191211e-001	9.127568e-001	9.090577e-001	9.084374e-001	9.107104e-001	9.153027e-001	9.215196e-001	9.287257e-001	9.363810e-001	9.441403e-001	9.516423e-001	9.587344e-001	9.652672e-001	9.711686e-001	9.764397e-001	9.810131e-001	9.849411e-001	9.881784e-001	9.907879e-001	9.927435e-001	9.941135e-001	9.948886e-001	9.951418e-001	9.948801e-001	9.941798e-001	9.930629e-001	9.916196e-001	9.898968e-001	9.879752e-001	9.859419e-001	9.841143e-001	9.826356e-001	9.805924e-001	9.779818e-001	9.811967e-001	9.913981e-001	9.745675e-001	8.253275e-001	6.697116e-001	6.334186e-001	6.388052e-001	6.403199e-001	6.377167e-001	6.361232e-001	6.359359e-001	6.369590e-001	6.392270e-001	6.428390e-001	6.474132e-001	6.524548e-001	6.580374e-001	6.649395e-001	6.737677e-001	6.844224e-001	6.966336e-001	7.100754e-001	7.251277e-001	7.421816e-001	7.614235e-001	7.831285e-001	8.074045e-001	8.345479e-001	8.648998e-001	8.986427e-001	9.359972e-001	9.770507e-001	1.021416e+000	1.068790e+000	1.118396e+000	1.168647e+000	1.218199e+000	1.264280e+000	1.303881e+000	1.332067e+000	1.349514e+000	1.347385e+000	1.332733e+000	1.324095e+000	1.292047e+000	1.222367e+000	1.153746e+000	1.083217e+000	1.017460e+000	9.611932e-001	9.154944e-001	8.791741e-001	8.505823e-001	8.277387e-001	8.089960e-001	7.934050e-001	7.799812e-001	7.681855e-001	7.577858e-001	7.483589e-001	7.394363e-001	7.307160e-001	7.219818e-001	7.132761e-001	7.048944e-001	6.970931e-001	6.897103e-001	6.823877e-001	6.749230e-001	6.676730e-001	6.608189e-001	6.543100e-001	6.479261e-001	6.417562e-001	6.360136e-001	6.309837e-001	6.267221e-001	6.232322e-001	6.204074e-001	6.181608e-001	6.164543e-001	6.152048e-001	6.143102e-001	6.137273e-001	6.138822e-001	6.159374e-001	6.192513e-001	6.201845e-001	6.217524e-001	7.037750e-001	8.988925e-001	9.998323e-001	9.991047e-001	9.885899e-001	9.876230e-001	9.880023e-001	9.869881e-001	9.859118e-001	9.852204e-001	9.847405e-001	9.844453e-001	9.844204e-001	9.846923e-001	9.852704e-001	9.861056e-001	9.871314e-001	9.882172e-001	9.892265e-001	9.899845e-001	9.903507e-001	9.901894e-001	9.894511e-001	9.881604e-001	9.864451e-001	9.845734e-001	9.829080e-001	9.819518e-001	9.822412e-001	9.844067e-001	9.890793e-001	9.968640e-001	1.008200e+000	1.023287e+000	1.041716e+000	1.062373e+000	1.083355e+000	1.102566e+000	1.117842e+000	1.127234e+000	1.129226e+000	1.123072e+000	1.109138e+000	1.089775e+000	1.069886e+000	1.055160e+000	1.050513e+000	1.057594e+000	1.073484e+000	1.093590e+000	1.114634e+000	1.136250e+000	1.160058e+000	1.150170e+000	9.989719e-001	9.998054e-001	9.999226e-001	9.998660e-001	9.998500e-001	9.998236e-001	9.997877e-001	9.997382e-001	9.996803e-001	9.996448e-001	9.996348e-001	9.996834e-001	9.997779e-001	9.999294e-001	1.000050e+000	1.000138e+000	1.000181e+000	1.000202e+000	1.000208e+000	1.000207e+000	1.000203e+000	1.000198e+000	1.000193e+000	1.000194e+000	1.000194e+000	1.000198e+000	1.000208e+000	1.000220e+000	1.000239e+000	1.000265e+000	1.000294e+000	1.000337e+000	1.000375e+000	1.000431e+000	1.000471e+000	1.000504e+000	1.000521e+000	1.000498e+000	1.000469e+000	1.000416e+000	1.000369e+000	1.000312e+000	1.000258e+000	1.000205e+000	1.000161e+000	1.000088e+000	1.000027e+000	1.000091e+000	9.993361e-001	9.983641e-001	8.245074e-001	9.828728e-001	6.186556e-001	9.875233e-001	9.778090e-001	1.155455e+000	1.148690e+000	9.362222e-001	9.742694e-001	1.276029e+000	9.502569e-001	9.859879e-001	1.133483e+000	1.126794e+000	9.855730e-001	9.632776e-001	1.331089e+000	1.115846e+000	1.098769e+000	1.338387e+000	9.862664e-001	9.154209e-001	9.233765e-001	6.172372e-001	9.166849e-001	6.362036e-001	9.274922e-001	9.936346e-001	9.403060e-001	7.772074e-001	9.431664e-001	1.348093e+000	9.013760e-001	9.269633e-001	1.077725e+000	9.835997e-001	9.211815e-001	9.202849e-001	1.074391e+000	1.004113e+000	6.673266e-001	9.437091e-001	9.432440e-001	1.142031e+000	9.927905e-001	9.850701e-001	9.939468e-001	9.887742e-001	9.919361e-001	9.904753e-001	6.956227e-001	9.916500e-001	9.797333e-001	8.823814e-001	9.822811e-001	7.055956e-001	1.002468e+000	9.522473e-001	6.388155e-001	9.129957e-001	6.749599e-001	6.497003e-001	7.571496e-001	7.231857e-001	9.943458e-001	6.607301e-001	9.912084e-001	9.343816e-001	1.033617e+000	1.137933e+000	1.213472e+000	9.100596e-001	9.376420e-001	9.010674e-001	1.042823e+000	1.223476e+000	9.147105e-001	6.412297e-001	9.943821e-001	9.569738e-001	9.294559e-001	7.086317e-001	6.430627e-001	9.938424e-001	9.788901e-001	8.520517e-001	1.254992e+000	1.123148e+000	9.868895e-001	6.547800e-001	1.180549e+000	6.415570e-001	7.392598e-001	6.383151e-001	6.430123e-001	9.869248e-001	9.690703e-001	1.316299e+000	1.320508e+000	9.882349e-001	1.338929e+000	8.529529e-001	7.842869e-001	8.133139e-001	7.140251e-001	6.196352e-001	1.107398e+000	9.872073e-001	9.965950e-001	1.094359e+000	1.113768e+000	1.008939e+000	1.004463e+000	6.289387e-001	6.165184e-001	1.071249e+000	1.036500e+000	7.516183e-001	1.080642e+000	1.115518e+000	1.101711e+000	7.322110e-001	7.724225e-001	6.248235e-001	6.317327e-001	6.746173e-001	6.201462e-001	7.944133e-001	6.188788e-001	6.900070e-001	7.058029e-001	9.852678e-001	6.605016e-001	6.473264e-001	9.859342e-001	9.866846e-001	9.908908e-001	9.894869e-001	9.891950e-001	9.908547e-001	9.870137e-001	9.870321e-001	1.021361e+000	9.930007e-001	1.111309e+000	1.053576e+000	1.106287e+000	9.890004e-001	9.995343e-001	9.880507e-001	9.865376e-001	9.910839e-001	9.901952e-001	9.885061e-001	9.903163e-001	9.854665e-001	9.866306e-001	9.877490e-001	9.853137e-001	6.537786e-001	6.414515e-001	6.821897e-001	6.674628e-001	7.977521e-001	6.979407e-001	9.480874e-001	8.314878e-001	6.457201e-001	1.104488e+000	9.590770e-001	9.184958e-001	9.418904e-001	9.931284e-001	1.165499e+000	8.787229e-001	1.046164e+000	7.418545e-001	7.616806e-001	6.279502e-001	7.228503e-001	1.069006e+000	1.063179e+000	6.222403e-001	1.065506e+000	1.075294e+000	6.185190e-001	6.162638e-001	1.087858e+000	1.174067e+000	1.126080e+000	1.143089e+000	9.890228e-001	9.157588e-001	1.090166e+000	9.902751e-001	1.291515e+000	1.168917e+000	7.995965e-001	6.842432e-001	6.432792e-001	7.764920e-001	1.257079e+000	1.298361e+000	6.454958e-001	9.722044e-001	9.425909e-001	1.201862e+000	9.866169e-001	9.767240e-001	9.368760e-001	1.111710e+000	8.348428e-001	9.252288e-001	9.216430e-001	7.742618e-001	1.321136e+000	6.547920e-001	1.120935e+000	9.603288e-001	6.881698e-001	9.670970e-001	9.841728e-001	9.858018e-001	7.946827e-001	9.790015e-001	9.439471e-001	9.312463e-001	1.058770e+000	9.340974e-001	9.872374e-001	9.915240e-001	7.341182e-001	9.880230e-001	6.909376e-001	1.002802e+000	1.072929e+000	6.228536e-001	9.864343e-001	1.102317e+000	1.010622e+000	1.077756e+000	1.103815e+000	1.078541e+000	6.486905e-001	6.250451e-001	6.546871e-001	7.438975e-001	9.807602e-001	6.589806e-001	1.012269e+000	7.074177e-001	8.167415e-001	1.094865e+000	1.087508e+000	1.020774e+000	6.791655e-001	1.182706e+000	1.114728e+000	1.100186e+000	1.108842e+000	1.210932e+000	1.239421e+000	1.339709e+000	1.332029e+000	1.079914e+000	1.185991e+000	8.419343e-001	1.139265e+000	1.128006e+000	6.160029e-001	9.933530e-001	1.098254e+000	9.352412e-001	9.863204e-001	1.121291e+000	1.336981e+000	9.841381e-001	6.234140e-001	9.223445e-001	6.343632e-001	9.298270e-001	9.403641e-001	8.172132e-001	9.449479e-001	9.366866e-001	9.206887e-001	1.001441e+000	9.333133e-001	9.946188e-001	1.079651e+000	7.095442e-001	9.493447e-001	9.430661e-001	1.133567e+000	9.875570e-001	9.892112e-001	9.906504e-001	1.040105e+000	9.819837e-001	9.830728e-001	9.912968e-001	9.304169e-001	9.284350e-001	9.211527e-001	6.981106e-001	7.556462e-001	9.934834e-001	9.912075e-001	1.027351e+000	1.055911e+000	9.615628e-001	9.556161e-001	7.387730e-001	7.233863e-001	9.932221e-001	9.924406e-001	8.986353e-001	8.690992e-001	1.161757e+000	9.921525e-001	9.783964e-001	6.711082e-001	6.644392e-001	6.515926e-001	6.493831e-001	6.319568e-001	6.594833e-001	6.484118e-001	1.323280e+000	1.273454e+000	8.337287e-001	1.073228e+000	9.883681e-001	9.918879e-001	1.005029e+000	9.320984e-001	1.086585e+000	1.101109e+000	1.061193e+000	6.812194e-001	6.190335e-001	6.211434e-001	1.046798e+000	1.096627e+000	7.885343e-001	8.018104e-001	6.433449e-001	6.385163e-001	6.989879e-001	7.162836e-001	7.250453e-001	9.915037e-001	9.913998e-001	9.906821e-001	9.918748e-001	9.907131e-001	1.032994e+000	9.971889e-001	9.935706e-001	9.906584e-001	9.910481e-001	9.920240e-001	9.918418e-001	9.898366e-001	9.889010e-001	9.866487e-001	9.862483e-001	9.872173e-001	9.882886e-001	9.860915e-001	9.861239e-001	6.611210e-001	6.681993e-001	6.755778e-001	6.832620e-001	9.706324e-001	8.534470e-001	8.764524e-001	9.265119e-001	9.231474e-001	9.918798e-001	9.927761e-001	1.161078e+000	9.030651e-001	7.543126e-001	7.651757e-001	6.276281e-001	6.307255e-001	6.204977e-001	6.211586e-001	1.087267e+000	1.075080e+000	9.893898e-001	9.870922e-001	9.646592e-001	1.302201e+000	6.488215e-001	1.319676e+000	9.817024e-001	6.424319e-001	9.384644e-001	9.919701e-001	9.444397e-001	1.080665e+000	1.077801e+000	1.094272e+000	1.158056e+000	1.087482e+000	1.129359e+000	1.150238e+000	1.129820e+000	1.169745e+000	1.083389e+000	1.308065e+000	7.923754e-001	9.402419e-001	1.109128e+000	9.873785e-001	1.147164e+000	1.225634e+000	9.700465e-001	1.282851e+000	9.652869e-001	1.119795e+000	9.375557e-001	1.191998e+000	9.378554e-001	9.333653e-001	9.744989e-001	1.117671e+000	1.156618e+000	1.082166e+000	9.892340e-001	1.091107e+000	9.878566e-001	1.096776e+000	9.883598e-001	6.459845e-001	6.302471e-001	7.093152e-001	8.050509e-001	1.140791e+000	1.300289e+000	1.237994e+000	9.896275e-001	1.279076e+000	9.920570e-001	8.131492e-001	1.328976e+000	7.017095e-001	9.862303e-001	1.047244e+000	1.069308e+000	9.955317e-001	9.934788e-001	9.885662e-001	1.078517e+000	1.094232e+000	1.020742e+000	1.012318e+000	6.334247e-001	6.412218e-001	6.629737e-001	7.568457e-001	9.818724e-001	9.783559e-001	6.696372e-001	1.028049e+000	7.177533e-001	1.087079e+000	1.106547e+000	1.113179e+000	1.201015e+000	1.255978e+000	1.325898e+000	1.011430e+000	1.156955e+000	1.150665e+000	1.019281e+000	1.098391e+000	9.870169e-001	9.847174e-001	6.243170e-001	9.284045e-001	9.301076e-001	9.419184e-001	9.454280e-001	8.600649e-001	8.356761e-001	9.473543e-001	9.470878e-001	9.462944e-001	9.656889e-001	1.084337e+000	9.490428e-001	9.435442e-001	1.123484e+000	9.877954e-001	9.891497e-001	9.832387e-001	9.836386e-001	9.775582e-001	9.365484e-001	9.371950e-001	7.254173e-001	7.133364e-001	9.921661e-001	9.921301e-001	1.044312e+000	1.066130e+000	9.600886e-001	9.545864e-001	7.733931e-001	7.552960e-001	7.387925e-001	9.915172e-001	9.906298e-001	9.457961e-001	9.153540e-001	8.865793e-001	9.985104e-001	9.847161e-001	9.785516e-001	6.911140e-001	6.824894e-001	6.753109e-001	6.648247e-001	6.608166e-001	6.391919e-001	7.089117e-001	6.574367e-001	8.537844e-001	1.002415e+000	9.994576e-001	1.091581e+000	7.989035e-001	6.236577e-001	6.116692e-001	6.255140e-001	1.053893e+000	8.196005e-001	8.357828e-001	6.510951e-001	6.569162e-001	7.269453e-001	7.370788e-001	7.469956e-001	9.919384e-001	1.042072e+000	1.030744e+000	1.005703e+000	1.000820e+000	9.975865e-001	9.943307e-001	9.937919e-001	9.935821e-001	9.933414e-001	9.930674e-001	9.925771e-001	9.911227e-001	9.902672e-001	9.893670e-001	9.873479e-001	9.884015e-001	9.898879e-001	9.869914e-001	9.868549e-001	9.868498e-001	6.696449e-001	6.766124e-001	6.844411e-001	6.925847e-001	7.010822e-001	8.742110e-001	8.979079e-001	9.340388e-001	9.305903e-001	9.285679e-001	9.903888e-001	9.912454e-001	9.250417e-001	9.552764e-001	7.676263e-001	7.794091e-001	7.918135e-001	6.371027e-001	6.261367e-001	6.263856e-001	6.278443e-001	1.084967e+000	1.076232e+000	1.065609e+000	9.890944e-001	9.872480e-001	9.847266e-001	6.556163e-001	6.521798e-001	1.300360e+000	8.113083e-001	1.101322e+000	1.080913e+000	9.905776e-001	1.289867e+000	1.134773e+000	9.497406e-001	9.490878e-001	1.019748e+000	1.086918e+000	9.907878e-001	1.280544e+000	1.039972e+000	1.210767e+000	1.087031e+000	1.093409e+000	1.221548e+000	9.881699e-001	1.189252e+000	1.154599e+000	1.158403e+000	9.403814e-001	7.170076e-001	1.085415e+000	9.810364e-001	8.320167e-001	9.843570e-001	6.418129e-001	1.080548e+000	9.875561e-001	1.085203e+000	1.081244e+000	9.951576e-001	7.303467e-001	6.611725e-001	1.097927e+000	8.370355e-001	9.413036e-001	1.117018e+000	1.082427e+000	1.120649e+000	1.036404e+000	1.117303e+000	9.723116e-001	1.238483e+000	9.681675e-001	9.636182e-001	1.149951e+000	1.106846e+000	1.181406e+000	9.983601e-001	9.869380e-001	6.452179e-001	1.258354e+000	1.076373e+000	9.888579e-001	1.021664e+000	6.412275e-001	6.502299e-001	6.551935e-001	9.794689e-001	9.759853e-001	1.082812e+000	1.113683e+000	1.152291e+000	1.263105e+000	1.309746e+000	1.052344e+000	1.015415e+000	1.086533e+000	9.873531e-001	9.358837e-001	9.380482e-001	9.448216e-001	9.480396e-001	8.780018e-001	8.542780e-001	9.503166e-001	9.513077e-001	9.509884e-001	9.736900e-001	9.937076e-001	9.491489e-001	9.452429e-001	1.114387e+000	9.857151e-001	9.870541e-001	9.821342e-001	9.831020e-001	9.512020e-001	9.589242e-001	7.441673e-001	7.301422e-001	9.902567e-001	1.055557e+000	1.072462e+000	9.590841e-001	9.537924e-001	7.913752e-001	7.729943e-001	7.576591e-001	9.903473e-001	9.892606e-001	9.897376e-001	9.600496e-001	9.306022e-001	9.030532e-001	9.860867e-001	9.931075e-001	9.784901e-001	9.784416e-001	7.066407e-001	6.972551e-001	6.900790e-001	6.831333e-001	6.776369e-001	8.250491e-001	6.658941e-001	6.719863e-001	1.004547e+000	1.085147e+000	1.086831e+000	9.287749e-001	6.810084e-001	6.180513e-001	6.200308e-001	6.282152e-001	8.545252e-001	8.738767e-001	6.669439e-001	6.737824e-001	7.394945e-001	7.496414e-001	7.606755e-001	7.715375e-001	1.048826e+000	1.039162e+000	1.029904e+000	1.014473e+000	1.008888e+000	1.004447e+000	1.001277e+000	9.974725e-001	9.963982e-001	9.954160e-001	9.943750e-001	9.939105e-001	9.930693e-001	9.923298e-001	9.913805e-001	9.905231e-001	9.896130e-001	9.879485e-001	9.885146e-001	9.876721e-001	9.873354e-001	9.871577e-001	9.872168e-001	6.802034e-001	6.876009e-001	6.947151e-001	7.031576e-001	7.116480e-001	7.209041e-001	8.944543e-001	9.175997e-001	9.380169e-001	9.354920e-001	9.348846e-001	9.883195e-001	9.894486e-001	9.897220e-001	9.445405e-001	9.739118e-001	1.005224e+000	7.823222e-001	7.942287e-001	8.077354e-001	8.218709e-001	6.326411e-001	6.334946e-001	6.354373e-001	6.376011e-001	1.058496e+000	1.075150e+000	1.067536e+000	9.884908e-001	9.865927e-001	9.848841e-001	9.821693e-001	6.670737e-001	6.622534e-001	6.548026e-001	1.143924e+000	1.098199e+000	1.032273e+000	1.146931e+000	1.171969e+000	9.647399e-001	8.306671e-001	1.197870e+000	1.080813e+000	1.244644e+000	1.056511e+000	7.362003e-001	7.542657e-001	1.081963e+000	1.179161e+000	1.265434e+000	1.311642e+000	1.312209e+000	1.303145e+000	1.261590e+000	1.115426e+000	6.550633e-001	1.048575e+000	1.097471e+000	9.636002e-001	9.456187e-001	9.777812e-001	1.090614e+000	1.053573e+000	1.073145e+000	9.859766e-001	9.927653e-001	9.881889e-001	9.956018e-001	1.004257e+000	9.880840e-001	6.488319e-001	1.086039e+000	8.514593e-001	1.134933e+000	1.081141e+000	1.309733e+000	1.154023e+000	1.146375e+000	9.580827e-001	1.028413e+000	1.279239e+000	1.049551e+000	1.222330e+000	1.080068e+000	1.207545e+000	1.147386e+000	1.148869e+000	1.115579e+000	7.227762e-001	6.671131e-001	1.082766e+000	9.859833e-001	1.077434e+000	1.087922e+000	9.721171e-001	1.238325e+000	6.586035e-001	6.662400e-001	6.704719e-001	9.783827e-001	1.114258e+000	1.147098e+000	1.289920e+000	1.087194e+000	9.434060e-001	9.449933e-001	9.489008e-001	9.511396e-001	8.728937e-001	8.968299e-001	9.543755e-001	9.553362e-001	9.572536e-001	9.581557e-001	9.978455e-001	1.015068e+000	9.519643e-001	1.105212e+000	9.833232e-001	9.842802e-001	9.796751e-001	9.811528e-001	9.707149e-001	9.822215e-001	7.630027e-001	7.449399e-001	1.063568e+000	1.076747e+000	9.580153e-001	8.102436e-001	7.899998e-001	7.797442e-001	9.880184e-001	1.001037e+000	9.730510e-001	9.453797e-001	9.209556e-001	8.889835e-001	9.886592e-001	9.893534e-001	9.827644e-001	9.803452e-001	7.218265e-001	7.154315e-001	7.037144e-001	6.987423e-001	6.891021e-001	1.081182e+000	1.081607e+000	1.081401e+000	9.814593e-001	7.868572e-001	6.454918e-001	6.249028e-001	6.245672e-001	8.732827e-001	8.933346e-001	6.790896e-001	6.839008e-001	7.612167e-001	7.747250e-001	7.871617e-001	1.045158e+000	1.037049e+000	1.029528e+000	1.022100e+000	1.016494e+000	1.010766e+000	1.007032e+000	1.002248e+000	9.997660e-001	9.974824e-001	9.937286e-001	9.917700e-001	9.898354e-001	9.871589e-001	9.869152e-001	6.932983e-001	6.983170e-001	7.083048e-001	7.136960e-001	7.247288e-001	7.337867e-001	7.438625e-001	9.145684e-001	9.367051e-001	9.421171e-001	9.402088e-001	9.418268e-001	9.857562e-001	9.871511e-001	9.618298e-001	9.902840e-001	1.018996e+000	7.988979e-001	8.109809e-001	8.247209e-001	8.408083e-001	8.566309e-001	6.344069e-001	6.400543e-001	6.442541e-001	6.467024e-001	1.067874e+000	1.060302e+000	9.863925e-001	9.831852e-001	6.836676e-001	6.745339e-001	6.669578e-001	6.541086e-001	1.140640e+000	1.124085e+000	1.185630e+000	1.279638e+000	1.151906e+000	1.057081e+000	1.084611e+000	1.220416e+000	1.075903e+000	1.117331e+000	1.079673e+000	1.271224e+000	1.060501e+000	1.162429e+000	6.614528e-001	1.147655e+000	1.113644e+000	1.194267e+000	1.137907e+000	1.044247e+000	9.853222e-001	1.081871e+000	7.346863e-001	9.803788e-001	9.696321e-001	9.832272e-001	8.499214e-001	7.472909e-001	1.243004e+000	9.757841e-001	8.932760e-001	8.725204e-001	7.825666e-001	1.078918e+000	1.051644e+000	1.244713e+000	1.085358e+000	1.030678e+000	1.140410e+000	1.079981e+000	1.309808e+000	1.258705e+000	1.089051e+000	9.627206e-001	1.011100e+000	9.216100e-001	1.088410e+000	1.144842e+000	1.102229e+000	1.292691e+000	1.148994e+000	1.036148e+000	1.226824e+000	1.207242e+000	9.824202e-001	1.087079e+000	1.074024e+000	1.070136e+000	9.899665e-001	6.723681e-001	6.857184e-001	9.688569e-001	1.141761e+000	1.169092e+000	1.113747e+000	9.511413e-001	9.566279e-001	9.144064e-001	9.616011e-001	9.657920e-001	1.016639e+000	1.097117e+000	9.803349e-001	9.907333e-001	1.002889e+000	7.719506e-001	1.068899e+000	9.572546e-001	9.523546e-001	8.206935e-001	7.990300e-001	9.859649e-001	1.011099e+000	9.839250e-001	9.581253e-001	9.405967e-001	9.468337e-001	9.931477e-001	9.784960e-001	7.259176e-001	7.070106e-001	1.078183e+000	1.077343e+000	6.611553e-001	6.352601e-001	9.114837e-001	7.004281e-001	8.026439e-001	1.000723e+000	1.038388e+000	1.025324e+000	1.014749e+000	1.008158e+000	1.003862e+000	9.978979e-001	9.954489e-001	9.931048e-001	9.908519e-001	9.887381e-001	9.870912e-001	9.863852e-001	9.851475e-001	7.161418e-001	7.323866e-001	7.483039e-001	7.553750e-001	7.687894e-001	9.336864e-001	9.551337e-001	9.484278e-001	9.464283e-001	9.485253e-001	9.829194e-001	9.842674e-001	9.777500e-001	1.003788e+000	1.030716e+000	1.057312e+000	8.167613e-001	8.290624e-001	8.426046e-001	8.589660e-001	8.782256e-001	8.902976e-001	6.457515e-001	6.561455e-001	1.067318e+000	1.061452e+000	9.853468e-001	9.796954e-001	9.748158e-001	6.862071e-001	6.749270e-001	1.092503e+000	1.139888e+000	1.135883e+000	1.108211e+000	9.835985e-001	1.085888e+000	1.144305e+000	1.111972e+000	1.193338e+000	1.132742e+000	1.123668e+000	1.103298e+000	1.136634e+000	1.225388e+000	1.252334e+000	1.074567e+000	9.619877e-001	6.717656e-001	1.098620e+000	9.713479e-001	1.087172e+000	9.192183e-001	1.112642e+000	1.174423e+000	9.736484e-001	9.973053e-001	9.804402e-001	9.839594e-001	1.052815e+000	1.063084e+000	1.064270e+000	1.043698e+000	1.141329e+000	1.079860e+000	1.082367e+000	1.071026e+000	6.947938e-001	9.816194e-001	9.720124e-001	9.296214e-001	1.120971e+000	1.127510e+000	1.292401e+000	1.041849e+000	1.072831e+000	1.146980e+000	1.072740e+000	1.204360e+000	1.153700e+000	9.829954e-001	1.239410e+000	9.147001e-001	8.903943e-001	1.077847e+000	1.260338e+000	1.030543e+000	1.081526e+000	9.668243e-001	1.272834e+000	1.148075e+000	9.540817e-001	1.225507e+000	1.210398e+000	1.