# vtk DataFile Version 3.0
vtk output
ASCII
DATASET UNSTRUCTURED_GRID
POINTS 5233 float
9.997500e-001	-3.633034e-005	0.0	9.990000e-001	-1.453399e-004	0.0	9.977600e-001	-3.260456e-004	0.0	9.960200e-001	-5.819474e-004	0.0	9.937800e-001	-9.177877e-004	0.0	9.910500e-001	-1.339191e-003	0.0	9.878400e-001	-1.850988e-003	0.0	9.841300e-001	-2.455756e-003	0.0	9.799500e-001	-3.132557e-003	0.0	9.752800e-001	-3.846602e-003	0.0	9.701500e-001	-4.534214e-003	0.0	9.645400e-001	-5.128113e-003	0.0	9.584700e-001	-5.563394e-003	0.0	9.519400e-001	-5.804831e-003	0.0	9.449600e-001	-5.856744e-003	0.0	9.375400e-001	-5.764915e-003	0.0	9.296900e-001	-5.605551e-003	0.0	9.214000e-001	-5.467501e-003	0.0	9.127000e-001	-5.436020e-003	0.0	9.035800e-001	-5.578695e-003	0.0	8.940600e-001	-5.939316e-003	0.0	8.841500e-001	-6.536875e-003	0.0	8.738500e-001	-7.370090e-003	0.0	8.631800e-001	-8.420524e-003	0.0	8.521600e-001	-9.659297e-003	0.0	8.407700e-001	-1.105777e-002	0.0	8.290500e-001	-1.257985e-002	0.0	8.170100e-001	-1.419533e-002	0.0	8.046400e-001	-1.588109e-002	0.0	7.919700e-001	-1.761367e-002	0.0	7.790100e-001	-1.937758e-002	0.0	7.657800e-001	-2.116091e-002	0.0	7.522800e-001	-2.295883e-002	0.0	7.385200e-001	-2.476873e-002	0.0	7.245300e-001	-2.658815e-002	0.0	7.103200e-001	-2.841912e-002	0.0	6.958900e-001	-3.026597e-002	0.0	6.812700e-001	-3.212945e-002	0.0	6.664700e-001	-3.401240e-002	0.0	6.515000e-001	-3.591663e-002	0.0	6.363800e-001	-3.784123e-002	0.0	6.211300e-001	-3.978347e-002	0.0	6.057600e-001	-4.173990e-002	0.0	5.902800e-001	-4.370500e-002	0.0	5.747100e-001	-4.566998e-002	0.0	5.590600e-001	-4.762538e-002	0.0	5.433600e-001	-4.955759e-002	0.0	5.276100e-001	-5.145539e-002	0.0	5.118400e-001	-5.330286e-002	0.0	4.960500e-001	-5.508705e-002	0.0	4.802700e-001	-5.679133e-002	0.0	4.645100e-001	-5.840161e-002	0.0	4.487800e-001	-5.990425e-002	0.0	4.331100e-001	-6.128476e-002	0.0	4.175000e-001	-6.253267e-002	0.0	4.019700e-001	-6.363717e-002	0.0	3.865400e-001	-6.458936e-002	0.0	3.712300e-001	-6.538238e-002	0.0	3.560400e-001	-6.601222e-002	0.0	3.409900e-001	-6.647560e-002	0.0	3.261100e-001	-6.677120e-002	0.0	3.114000e-001	-6.690015e-002	0.0	2.968700e-001	-6.686462e-002	0.0	2.825500e-001	-6.666837e-002	0.0	2.684500e-001	-6.631647e-002	0.0	2.545700e-001	-6.581438e-002	0.0	2.409400e-001	-6.516932e-002	0.0	2.275700e-001	-6.438859e-002	0.0	2.144700e-001	-6.347972e-002	0.0	2.016600e-001	-6.245121e-002	0.0	1.891400e-001	-6.131001e-002	0.0	1.769300e-001	-6.006460e-002	0.0	1.650400e-001	-5.872244e-002	0.0	1.534900e-001	-5.729190e-002	0.0	1.422900e-001	-5.577994e-002	0.0	1.314400e-001	-5.419150e-002	0.0	1.209500e-001	-5.253213e-002	0.0	1.108500e-001	-5.081032e-002	0.0	1.011300e-001	-4.902738e-002	0.0	9.181000e-002	-4.718906e-002	0.0	8.290000e-002	-4.529886e-002	0.0	7.440000e-002	-4.335731e-002	0.0	6.633000e-002	-4.136878e-002	0.0	5.869000e-002	-3.933232e-002	0.0	5.149000e-002	-3.724862e-002	0.0	4.474000e-002	-3.511794e-002	0.0	3.844000e-002	-3.293662e-002	0.0	3.260000e-002	-3.070341e-002	0.0	2.723000e-002	-2.841704e-002	0.0	2.232000e-002	-2.606642e-002	0.0	1.790000e-002	-2.365917e-002	0.0	1.395000e-002	-2.117684e-002	0.0	1.049000e-002	-1.862302e-002	0.0	7.520000e-003	-1.599049e-002	0.0	5.040000e-003	-1.327138e-002	0.0	3.050000e-003	-1.045687e-002	0.0	1.560000e-003	-7.558596e-003	0.0	5.600000e-004	-4.555504e-003	0.0	6.000000e-005	-1.477394e-003	0.0	0.000000e+000	0.000000e+000	0.0	6.000000e-005	1.348420e-003	0.0	5.600000e-004	4.006873e-003	0.0	1.560000e-003	6.540583e-003	0.0	3.050000e-003	8.975954e-003	0.0	5.040000e-003	1.135586e-002	0.0	7.520000e-003	1.368608e-002	0.0	1.049000e-002	1.598445e-002	0.0	1.395000e-002	1.826469e-002	0.0	1.790000e-002	2.053765e-002	0.0	2.232000e-002	2.280193e-002	0.0	2.723000e-002	2.507506e-002	0.0	3.260000e-002	2.734827e-002	0.0	3.844000e-002	2.962955e-002	0.0	4.474000e-002	3.191621e-002	0.0	5.149000e-002	3.420444e-002	0.0	5.869000e-002	3.649231e-002	0.0	6.633000e-002	3.877318e-002	0.0	7.440000e-002	4.103944e-002	0.0	8.290000e-002	4.328526e-002	0.0	9.181000e-002	4.549870e-002	0.0	1.011300e-001	4.767246e-002	0.0	1.108500e-001	4.979618e-002	0.0	1.209500e-001	5.185738e-002	0.0	1.314400e-001	5.384962e-002	0.0	1.422900e-001	5.575874e-002	0.0	1.534900e-001	5.757505e-002	0.0	1.650400e-001	5.929072e-002	0.0	1.769300e-001	6.089663e-002	0.0	1.891400e-001	6.238315e-002	0.0	2.016600e-001	6.374294e-002	0.0	2.144700e-001	6.496856e-002	0.0	2.275700e-001	6.605547e-002	0.0	2.409400e-001	6.699821e-002	0.0	2.545700e-001	6.779323e-002	0.0	2.684500e-001	6.843792e-002	0.0	2.825500e-001	6.892992e-002	0.0	2.968700e-001	6.926922e-002	0.0	3.114000e-001	6.945606e-002	0.0	3.261100e-001	6.949154e-002	0.0	3.409900e-001	6.937800e-002	0.0	3.560400e-001	6.911819e-002	0.0	3.712300e-001	6.871596e-002	0.0	3.865400e-001	6.817596e-002	0.0	4.019700e-001	6.750259e-002	0.0	4.175000e-001	6.670130e-002	0.0	4.331100e-001	6.577804e-002	0.0	4.487800e-001	6.473912e-002	0.0	4.645100e-001	6.358953e-002	0.0	4.802700e-001	6.233635e-002	0.0	4.960500e-001	6.098514e-002	0.0	5.118400e-001	5.954113e-002	0.0	5.276100e-001	5.801113e-002	0.0	5.433600e-001	5.639880e-002	0.0	5.590600e-001	5.471043e-002	0.0	5.747100e-001	5.294882e-002	0.0	5.902800e-001	5.111982e-002	0.0	6.057600e-001	4.922690e-002	0.0	6.211300e-001	4.727476e-002	0.0	6.363800e-001	4.526712e-002	0.0	6.515000e-001	4.320820e-002	0.0	6.664700e-001	4.110444e-002	0.0	6.812700e-001	3.896378e-002	0.0	6.958900e-001	3.679455e-002	0.0	7.103200e-001	3.460732e-002	0.0	7.245300e-001	3.241853e-002	0.0	7.385200e-001	3.024309e-002	0.0	7.522800e-001	2.810067e-002	0.0	7.657800e-001	2.601709e-002	0.0	7.790100e-001	2.401739e-002	0.0	7.919700e-001	2.212643e-002	0.0	8.046400e-001	2.037171e-002	0.0	8.170100e-001	1.877671e-002	0.0	8.290500e-001	1.736242e-002	0.0	8.407700e-001	1.613789e-002	0.0	8.521600e-001	1.510632e-002	0.0	8.631800e-001	1.426359e-002	0.0	8.738500e-001	1.359154e-002	0.0	8.841500e-001	1.306743e-002	0.0	8.940600e-001	1.266162e-002	0.0	9.035800e-001	1.233818e-002	0.0	9.127000e-001	1.205634e-002	0.0	9.214000e-001	1.176954e-002	0.0	9.296900e-001	1.142430e-002	0.0	9.375400e-001	1.096611e-002	0.0	9.449600e-001	1.034438e-002	0.0	9.519400e-001	9.527999e-003	0.0	9.584700e-001	8.518500e-003	0.0	9.645400e-001	7.357501e-003	0.0	9.701500e-001	6.119338e-003	0.0	9.752800e-001	4.899547e-003	0.0	9.799500e-001	3.776902e-003	0.0	9.841300e-001	2.814593e-003	0.0	9.878400e-001	2.028663e-003	0.0	9.910500e-001	1.415643e-003	0.0	9.937800e-001	9.450047e-004	0.0	9.960200e-001	5.893952e-004	0.0	9.977600e-001	3.274145e-004	0.0	9.990000e-001	1.454642e-004	0.0	9.997500e-001	3.633230e-005	0.0	1.000000e+000	0.000000e+000	0.0	1.984229e+001	2.506660e+000	0.0	1.937166e+001	4.973800e+000	0.0	1.859553e+001	7.362490e+000	0.0	1.752613e+001	9.635070e+000	0.0	1.618034e+001	1.175571e+001	0.0	1.457937e+001	1.369094e+001	0.0	1.274848e+001	1.541027e+001	0.0	1.071654e+001	1.688656e+001	0.0	8.515590e+000	1.809654e+001	0.0	6.180340e+000	1.902113e+001	0.0	3.747630e+000	1.964575e+001	0.0	1.255810e+000	1.996053e+001	0.0	-1.255810e+000	1.996053e+001	0.0	-3.747630e+000	1.964574e+001	0.0	-6.180340e+000	1.902113e+001	0.0	-8.515590e+000	1.809654e+001	0.0	-1.071654e+001	1.688656e+001	0.0	-1.274848e+001	1.541026e+001	0.0	-1.457937e+001	1.369094e+001	0.0	-1.618034e+001	1.175570e+001	0.0	-1.752613e+001	9.635070e+000	0.0	-1.859553e+001	7.362490e+000	0.0	-1.937166e+001	4.973800e+000	0.0	-1.984229e+001	2.506660e+000	0.0	-2.000000e+001	0.000000e+000	0.0	-1.984229e+001	-2.506670e+000	0.0	-1.937166e+001	-4.973800e+000	0.0	-1.859553e+001	-7.362490e+000	0.0	-1.752613e+001	-9.635080e+000	0.0	-1.618034e+001	-1.175571e+001	0.0	-1.457937e+001	-1.369094e+001	0.0	-1.274848e+001	-1.541027e+001	0.0	-1.071653e+001	-1.688656e+001	0.0	-8.515580e+000	-1.809654e+001	0.0	-6.180340e+000	-1.902113e+001	0.0	-3.747620e+000	-1.964575e+001	0.0	-1.255810e+000	-1.996053e+001	0.0	1.255810e+000	-1.996053e+001	0.0	3.747630e+000	-1.964574e+001	0.0	6.180340e+000	-1.902113e+001	0.0	8.515590e+000	-1.809654e+001	0.0	1.071654e+001	-1.688656e+001	0.0	1.274848e+001	-1.541026e+001	0.0	1.457937e+001	-1.369094e+001	0.0	1.618034e+001	-1.175570e+001	0.0	1.752614e+001	-9.635070e+000	0.0	1.859553e+001	-7.362490e+000	0.0	1.937166e+001	-4.973790e+000	0.0	1.984229e+001	-2.506660e+000	0.0	2.000000e+001	0.000000e+000	0.0	6.064820e-002	-4.740021e-002	0.0	6.605582e-001	-4.874010e-002	0.0	4.260389e-001	8.037148e-002	0.0	6.902543e-001	5.125187e-002	0.0	3.794897e-001	-7.875845e-002	0.0	9.994562e-001	-7.203855e-004	0.0	9.985375e-001	-1.310738e-003	0.0	7.737448e-001	-3.247408e-002	0.0	6.901281e-001	-4.464297e-002	0.0	-1.426827e-003	6.142654e-003	0.0	7.468286e-001	-3.651292e-002	0.0	5.839916e-001	6.620086e-002	0.0	9.927606e-001	-3.591433e-003	0.0	9.898551e-001	-4.486560e-003	0.0	5.995589e-001	6.426056e-002	0.0	7.189241e-001	-4.056607e-002	0.0	-1.623416e-003	6.681805e-004	0.0	9.864555e-001	-5.463259e-003	0.0	9.825698e-001	-6.499111e-003	0.0	-1.518144e-003	-6.955478e-003	0.0	6.455219e-001	-5.079640e-002	0.0	8.241519e-001	-2.470510e-002	0.0	7.995459e-001	-2.851499e-002	0.0	3.487093e-001	8.282807e-002	0.0	8.474388e-001	-2.121635e-002	0.0	2.471191e-001	7.968343e-002	0.0	8.693519e-001	-1.822768e-002	0.0	1.000692e-002	2.040068e-002	0.0	8.898046e-001	-1.592619e-002	0.0	7.691278e-002	-5.217182e-002	0.0	9.087500e-001	-1.437178e-002	0.0	-1.970053e-003	-3.453270e-003	0.0	9.418451e-001	-1.255300e-002	0.0	9.261251e-001	-1.338703e-002	0.0	1.784128e-002	-2.888200e-002	0.0	4.262197e-001	-7.599202e-002	0.0	8.585752e-001	-1.964385e-002	0.0	9.558286e-001	-1.139642e-002	0.0	9.781878e-001	-7.587530e-003	0.0	9.679720e-001	-9.680561e-003	0.0	1.581078e-001	-6.856341e-002	0.0	8.994711e-001	-1.506067e-002	0.0	7.604208e-001	-3.448892e-002	0.0	9.971101e-001	-2.044151e-003	0.0	5.995838e-001	-5.696202e-002	0.0	4.419525e-001	-7.476222e-002	0.0	5.369231e-001	-6.491689e-002	0.0	4.735741e-001	-7.190122e-002	0.0	5.052691e-001	-6.858580e-002	0.0	4.894118e-001	-7.029412e-002	0.0	1.247996e-001	-6.298288e-002	0.0	2.775398e-002	-3.449347e-002	0.0	3.949759e-001	-7.799898e-002	0.0	4.613361e-002	-4.241
[...]
POINT_DATA 5233

SCALARS Density float 1
LOOKUP_TABLE default
1.163667e+000	1.139813e+000	1.126103e+000	1.114555e+000	1.103888e+000	1.092742e+000	1.079331e+000	1.062820e+000	1.042911e+000	1.020542e+000	9.993694e-001	9.856451e-001	9.841091e-001	9.946781e-001	1.013415e+000	1.035315e+000	1.056151e+000	1.073099e+000	1.085177e+000	1.092494e+000	1.095536e+000	1.095034e+000	1.091721e+000	1.086327e+000	1.079488e+000	1.071775e+000	1.063698e+000	1.055605e+000	1.047837e+000	1.040587e+000	1.033981e+000	1.028049e+000	1.022763e+000	1.018021e+000	1.013768e+000	1.009809e+000	1.006054e+000	1.002335e+000	9.985289e-001	9.945761e-001	9.903473e-001	9.858430e-001	9.811226e-001	9.766389e-001	9.721021e-001	9.664031e-001	9.619358e-001	9.686325e-001	9.786848e-001	9.361480e-001	7.763175e-001	6.660555e-001	6.560017e-001	6.688336e-001	6.778791e-001	6.836106e-001	6.903797e-001	6.987872e-001	7.081230e-001	7.179708e-001	7.282764e-001	7.389768e-001	7.499388e-001	7.610827e-001	7.722892e-001	7.835309e-001	7.947809e-001	8.059825e-001	8.169981e-001	8.277283e-001	8.381139e-001	8.482224e-001	8.581706e-001	8.680468e-001	8.778257e-001	8.874057e-001	8.967913e-001	9.061028e-001	9.154062e-001	9.247458e-001	9.342522e-001	9.440115e-001	9.541897e-001	9.649491e-001	9.765237e-001	9.892524e-001	1.003470e+000	1.019655e+000	1.038470e+000	1.060523e+000	1.086679e+000	1.117799e+000	1.154157e+000	1.195556e+000	1.240231e+000	1.285199e+000	1.322023e+000	1.348355e+000	1.348961e+000	1.333786e+000	1.322862e+000	1.286177e+000	1.212384e+000	1.150168e+000	1.095911e+000	1.052631e+000	1.020366e+000	9.966612e-001	9.785516e-001	9.640893e-001	9.518652e-001	9.408711e-001	9.305939e-001	9.205613e-001	9.105086e-001	9.002968e-001	8.897719e-001	8.788588e-001	8.676172e-001	8.560437e-001	8.441848e-001	8.320139e-001	8.195064e-001	8.067998e-001	7.941084e-001	7.816181e-001	7.693292e-001	7.569701e-001	7.444276e-001	7.318303e-001	7.195360e-001	7.077335e-001	6.964944e-001	6.857172e-001	6.753772e-001	6.653963e-001	6.557525e-001	6.464807e-001	6.375032e-001	6.289028e-001	6.207743e-001	6.133399e-001	6.066604e-001	6.005086e-001	5.945645e-001	5.887725e-001	5.831504e-001	5.779179e-001	5.730526e-001	5.687716e-001	5.650032e-001	5.615482e-001	5.583283e-001	5.550774e-001	5.518668e-001	5.486081e-001	5.460396e-001	5.435846e-001	5.417906e-001	5.396504e-001	5.408127e-001	6.361504e-001	8.813131e-001	1.003320e+000	1.004732e+000	1.004562e+000	1.011725e+000	1.018279e+000	1.024058e+000	1.029682e+000	1.034699e+000	1.038802e+000	1.041759e+000	1.043348e+000	1.043426e+000	1.041875e+000	1.038626e+000	1.033643e+000	1.026911e+000	1.018386e+000	1.008125e+000	9.964346e-001	9.843160e-001	9.736044e-001	9.671793e-001	9.682254e-001	9.787239e-001	9.976067e-001	1.020789e+000	1.043510e+000	1.063088e+000	1.078368e+000	1.089257e+000	1.096817e+000	1.102290e+000	1.107770e+000	1.114223e+000	1.123927e+000	1.134423e+000	1.132977e+000	9.979254e-001	9.995031e-001	9.996896e-001	9.995133e-001	9.994167e-001	9.992879e-001	9.991374e-001	9.989527e-001	9.987526e-001	9.986323e-001	9.985909e-001	9.987198e-001	9.989676e-001	9.993877e-001	9.997274e-001	9.999939e-001	1.000140e+000	1.000229e+000	1.000281e+000	1.000304e+000	1.000315e+000	1.000319e+000	1.000322e+000	1.000330e+000	1.000337e+000	1.000350e+000	1.000374e+000	1.000405e+000	1.000449e+000	1.000514e+000	1.000587e+000	1.000706e+000	1.000820e+000	1.001013e+000	1.001189e+000	1.001403e+000	1.001625e+000	1.001705e+000	1.001719e+000	1.001576e+000	1.001418e+000	1.001197e+000	1.000993e+000	1.000794e+000	1.000623e+000	1.000399e+000	1.000215e+000	1.000292e+000	9.987896e-001	9.968139e-001	9.720450e-001	9.976750e-001	5.985088e-001	7.521605e-001	7.035322e-001	1.142505e+000	1.131386e+000	1.032483e+000	1.005492e+000	1.272809e+000	1.022063e+000	5.548259e-001	1.096692e+000	1.085094e+000	5.517411e-001	1.013332e+000	1.331193e+000	1.071679e+000	1.056163e+000	1.333659e+000	9.935875e-001	1.059106e+000	1.044991e+000	6.336305e-001	1.073164e+000	7.017501e-001	1.084353e+000	1.046083e+000	1.088805e+000	9.497543e-001	1.082207e+000	1.347781e+000	1.028984e+000	1.061393e+000	1.098335e+000	6.820954e-001	1.079329e+000	1.002115e+000	1.038683e+000	1.006235e+000	8.711966e-001	1.087156e+000	1.027009e+000	1.118479e+000	9.801113e-001	6.690220e-001	9.646923e-001	6.880471e-001	9.864674e-001	8.802778e-001	9.004957e-001	1.049754e+000	6.952697e-001	9.979784e-001	6.888969e-001	7.432355e-001	7.225432e-001	1.030199e+000	7.650053e-001	1.046003e+000	8.810618e-001	8.412881e-001	9.394437e-001	9.196800e-001	9.711385e-001	8.613154e-001	9.846609e-001	1.087691e+000	1.072281e+000	1.107541e+000	1.199364e+000	9.983831e-001	1.073641e+000	1.013139e+000	1.020793e+000	1.221258e+000	1.066279e+000	7.981880e-001	9.653356e-001	1.017501e+000	1.038480e+000	9.100665e-001	8.201769e-001	9.759526e-001	1.001649e+000	9.844231e-001	1.238344e+000	1.128250e+000	7.127842e-001	8.513925e-001	1.176316e+000	8.092377e-001	9.294587e-001	7.540474e-001	7.871048e-001	6.592315e-001	1.009350e+000	1.314491e+000	1.310396e+000	5.647738e-001	1.339611e+000	9.661764e-001	9.181503e-001	9.409064e-001	8.362283e-001	6.047006e-001	1.108720e+000	5.682846e-001	5.813571e-001	1.036358e+000	9.999072e-001	1.029225e+000	5.765391e-001	5.924923e-001	6.179968e-001	9.958731e-001	1.014526e+000	8.841738e-001	1.053742e+000	9.868401e-001	9.813128e-001	8.606509e-001	9.069594e-001	6.706244e-001	6.910319e-001	7.739733e-001	6.514513e-001	5.867824e-001	6.111643e-001	7.984857e-001	8.236376e-001	5.475603e-001	7.490474e-001	7.244997e-001	5.371495e-001	5.580294e-001	1.009826e+000	1.006966e+000	1.031540e+000	1.021600e+000	1.041126e+000	1.038572e+000	1.022553e+000	1.038147e+000	9.806130e-001	1.005410e+000	1.017549e+000	1.040360e+000	1.034425e+000	1.035530e+000	1.040494e+000	1.016299e+000	1.026809e+000	1.009965e+000	1.003158e+000	5.426657e-001	5.536708e-001	5.613294e-001	5.488342e-001	7.366083e-001	7.129153e-001	7.862227e-001	7.616048e-001	9.293817e-001	8.109902e-001	1.019556e+000	9.530292e-001	8.308824e-001	1.120671e+000	9.993400e-001	1.051913e+000	7.327227e-001	9.790723e-001	1.169387e+000	9.809706e-001	1.079370e+000	8.725042e-001	8.956425e-001	6.806570e-001	8.485761e-001	1.068429e+000	1.079998e+000	6.608888e-001	1.088864e+000	1.095844e+000	6.423918e-001	6.254689e-001	9.871797e-001	1.143971e+000	1.117242e+000	1.125921e+000	9.892109e-001	1.013104e+000	1.102128e+000	5.721720e-001	1.276862e+000	1.162179e+000	9.605576e-001	8.908532e-001	7.760520e-001	9.017544e-001	1.254945e+000	1.295588e+000	7.808279e-001	1.008825e+000	1.072440e+000	1.193620e+000	5.617694e-001	1.004833e+000	1.036610e+000	1.077837e+000	7.487396e-001	1.072714e+000	1.061207e+000	9.447572e-001	1.314088e+000	8.347758e-001	1.130856e+000	1.013817e+000	8.849005e-001	1.012831e+000	9.967777e-001	6.652319e-001	9.554954e-001	7.099070e-001	1.081394e+000	1.042407e+000	1.091234e+000	1.012675e+000	5.429364e-001	1.038532e+000	8.536128e-001	6.118065e-001	7.918940e-001	1.034421e+000	1.080521e+000	6.485878e-001	5.769349e-001	9.961555e-001	1.030587e+000	1.088294e+000	1.004600e+000	1.059457e+000	7.195797e-001	6.578560e-001	7.310349e-001	8.658463e-001	1.000917e+000	8.451889e-001	1.060323e+000	8.161823e-001	9.377576e-001	1.031495e+000	1.095130e+000	1.025544e+000	8.750437e-001	1.160473e+000	1.108659e+000	1.101620e+000	1.127377e+000	1.211865e+000	1.227258e+000	1.338718e+000	1.331655e+000	1.103371e+000	1.173721e+000	9.786381e-001	1.120767e+000	1.099763e+000	6.101827e-001	9.660220e-001	1.065203e+000	1.080495e+000	5.587411e-001	1.089171e+000	1.333329e+000	6.856097e-001	6.170758e-001	1.067294e+000	6.873400e-001	1.077295e+000	1.082001e+000	9.667224e-001	1.078261e+000	1.063795e+000	1.027911e+000	1.057247e+000	1.018274e+000	1.016137e+000	1.051482e+000	9.046674e-001	1.026050e+000	1.031151e+000	1.110098e+000	6.758164e-001	7.921745e-001	9.605941e-001	1.079030e+000	7.022217e-001	6.950423e-001	7.384390e-001	1.020842e+000	1.052739e+000	1.040199e+000	8.947983e-001	9.344013e-001	9.707430e-001	9.836078e-001	1.024764e+000	1.037445e+000	1.016937e+000	1.021415e+000	9.243739e-001	9.144851e-001	9.753625e-001	9.791705e-001	1.005493e+000	9.915197e-001	1.160963e+000	7.285155e-001	7.189027e-001	8.652549e-001	8.553475e-001	8.241392e-001	8.133807e-001	7.700199e-001	7.592617e-001	8.025333e-001	1.322018e+000	1.260817e+000	9.502813e-001	1.071032e+000	5.727027e-001	5.814192e-001	5.864453e-001	5.916661e-001	1.046095e+000	1.017055e+000	1.005376e+000	5.975028e-001	6.036105e-001	6.243910e-001	1.012556e+000	9.927346e-001	9.136119e-001	9.256033e-001	7.085195e-001	6.977350e-001	8.040345e-001	8.286240e-001	8.411810e-001	1.028474e+000	1.007721e+000	1.001590e+000	1.024054e+000	1.037463e+000	1.019466e+000	1.037022e+000	1.038367e+000	1.035378e+000	1.032350e+000	1.019455e+000	1.015013e+000	1.007152e+000	9.286147e-001	5.392790e-001	5.502024e-001	5.651534e-001	5.687172e-001	5.536481e-001	5.555835e-001	7.427227e-001	7.548402e-001	7.671751e-001	7.796511e-001	1.034501e+000	9.635836e-001	9.781278e-001	1.048569e+000	1.054923e+000	9.835310e-001	9.685673e-001	1.168753e+000	9.942738e-001	8.779089e-001	8.898431e-001	6.673401e-001	6.771849e-001	6.319466e-001	6.399727e-001	9.940354e-001	9.987643e-001	9.881191e-001	9.926195e-001	1.037937e+000	1.291558e+000	7.916959e-001	1.313445e+000	7.172001e-001	7.864991e-001	1.040293e+000	9.669892e-001	1.064326e+000	1.081333e+000	1.073535e+000	1.019433e+000	1.167132e+000	1.088636e+000	1.116469e+000	1.126986e+000	1.111834e+000	1.153690e+000	1.107404e+000	1.305186e+000	9.504772e-001	1.056477e+000	1.083636e+000	5.702476e-001	1.132798e+000	1.217387e+000	1.012299e+000	1.273023e+000	1.016451e+000	1.132269e+000	1.074239e+000	1.188050e+000	7.551022e-001	1.071168e+000	1.008411e+000	1.093831e+000	1.159542e+000	1.053846e+000	5.825010e-001	1.004843e+000	5.336247e-001	1.094278e+000	5.875410e-001	7.051469e-001	6.647853e-001	8.108177e-001	9.206940e-001	1.122941e+000	1.292147e+000	1.237213e+000	1.045848e+000	1.275979e+000	1.025940e+000	9.614616e-001	1.327174e+000	8.893697e-001	6.728334e-001	1.084551e+000	1.099229e+000	1.035777e+000	1.026038e+000	5.582393e-001	1.064461e+000	1.010504e+000	1.027528e+000	1.031212e+000	6.744385e-001	6.945737e-001	7.383851e-001	8.720505e-001	1.000356e+000	1.004263e+000	8.497875e-001	1.070821e+000	8.226647e-001	1.042350e+000	1.100590e+000	1.131537e+000	1.203789e+000	1.246032e+000	1.322298e+000	1.063560e+000	1.148686e+000	1.138989e+000	1.030941e+000	1.073239e+000	5.670961e-001	6.858834e-001	6.234267e-001	1.062192e+000	1.066990e+000	1.075996e+000	1.076113e+000	9.852063e-001	9.730194e-001	1.074261e+000	1.070413e+000	1.030345e+000	1.025817e+000	1.062149e+000	1.030019e+000	1.034927e+000	1.102905e+000	7.195339e-001	8.993751e-001	7.096996e-001	6.996927e-001	1.044874e+000	1.047373e+000	1.038125e+000	9.093870e-001	8.993237e-001	9.700586e-001	9.752747e-001	1.039770e+000	1.050630e+000	1.020728e+000	1.025122e+000	9.398743e-001	9.294577e-001	9.193712e-001	9.787952e-001	9.829870e-001	1.028139e+000	1.012646e+000	9.983184e-001	7.451206e-001	7.352927e-001	7.259357e-001	8.796915e-001	8.699347e-001	8.599678e-001	8.394385e-001	8.289671e-001	7.758623e-001	7.654171e-001	8.183787e-001	9.593063e-001	5.921880e-001	5.976090e-001	1.030477e+000	6.032422e-001	6.095050e-001	6.161175e-001	6.311083e-001	1.012629e+000	9.331793e-001	9.460510e-001	7.158646e-001	7.270573e-001	8.345558e-001	8.470470e-001	8.597187e-001	1.004673e+000	1.017915e+000	1.023063e+000	1.033899e+000	1.035604e+000	1.036279e+000	1.034535e+000	1.032348e+000	1.029485e+000	1.022366e+000	1.018983e+000	1.013650e+000	1.008830e+000	1.014328e+000	7.811949e-001	5.539133e-001	5.740275e-001	5.782608e-001	5.559529e-001	5.610208e-001	5.637585e-001	7.500283e-001	7.617027e-001	7.737952e-001	7.861115e-001	7.986409e-001	9.731945e-001	9.884998e-001	1.045703e+000	1.051331e+000	1.056792e+000	9.816329e-001	9.749467e-001	1.005514e+000	1.024303e+000	8.841589e-001	8.962977e-001	9.084240e-001	6.843997e-001	6.393086e-001	6.474887e-001	6.558748e-001	1.002853e+000	1.004124e+000	1.007713e+000	9.872966e-001	9.919026e-001	9.960563e-001	8.077747e-001	7.971179e-001	1.292996e+000	9.562436e-001	1.093731e+000	1.059238e+000	9.689941e-001	1.285958e+000	1.120078e+000	1.058058e+000	1.051543e+000	1.068238e+000	1.081832e+000	6.003283e-001	1.272288e+000	1.078083e+000	1.205888e+000	1.022987e+000	1.088027e+000	1.222040e+000	5.420967e-001	1.193596e+000	1.128876e+000	1.152617e+000	1.043308e+000	8.950157e-001	1.109581e+000	7.260532e-001	9.675097e-001	6.907317e-001	7.936458e-001	1.067689e+000	5.806318e-001	1.016561e+000	1.012567e+000	1.022590e+000	8.306348e-001	7.252211e-001	1.079379e+000	9.405364e-001	1.068331e+000	1.106325e+000	1.075258e+000	1.104630e+000	1.043574e+000	1.131736e+000	1.011654e+000	1.230931e+000	1.015745e+000	1.019973e+000	1.155961e+000	1.088211e+000	1.180971e+000	1.032952e+000	5.936317e-001	6.933876e-001	1.255706e+000	1.103963e+000	5.663435e-001	1.028085e+000	6.837217e-001	7.038947e-001	7.141882e-001	1.003619e+000	1.007652e+000	1.049983e+000	1.131915e+000	1.162544e+000	1.254466e+000	1.303908e+000	1.088096e+000	1.037677e+000	1.070165e+000	5.770201e-001	1.061820e+000	1.065705e+000	1.070468e+000	1.070695e+000	9.914056e-001	9.791337e-001	1.069937e+000	1.067403e+000	1.063370e+000	1.035580e+000	1.034888e+000	1.033227e+000	1.037906e+000	1.096688e+000	7.054008e-001	8.274134e-001	7.167075e-001	7.040479e-001	1.045024e+000	1.039336e+000	9.147953e-001	9.043785e-001	9.732894e-001	1.051568e+000	1.060735e+000	1.023882e+000	1.029122e+000	9.454505e-001	9.350525e-001	9.250289e-001	9.777514e-001	9.820843e-001	1.050947e+000	1.034352e+000	1.018661e+000	1.004398e+000	7.633678e-001	7.534712e-001	7.441782e-001	7.349406e-001	8.854487e-001	8.756795e-001	8.656575e-001	8.555648e-001	8.454044e-001	7.731860e-001	7.834613e-001	8.351234e-001	6.055123e-001	1.040496e+000	1.031202e+000	6.115147e-001	6.174396e-001	6.244375e-001	6.314651e-001	6.397071e-001	9.539326e-001	9.679841e-001	7.360436e-001	7.476507e-001	8.422649e-001	8.538105e-001	8.663076e-001	8.789582e-001	1.017867e+000	1.021494e+000	1.025067e+000	1.030596e+000	1.032228e+000	1.033244e+000	1.032752e+000	1.031215e+000	1.028583e+000	1.026706e+000	1.019245e+000	1.015110e+000	1.011370e+000	1.012621e+000	1.015908e+000	9.180086e-001	6.450338e-001	5.901117e-001	5.840985e-001	5.567582e-001	5.658141e-001	5.697262e-001	5.728288e-001	7.589099e-001	7.705956e-001	7.818652e-001	7.936414e-001	8.056652e-001	8.180865e-001	9.823547e-001	9.975354e-001	1.047532e+000	1.053178e+000	1.057647e+000	9.623905e-001	9.819395e-001	9.722421e-001	1.014946e+000	1.033966e+000	1.054507e+000	8.912543e-001	9.032170e-001	9.154952e-001	9.278928e-001	6.478728e-001	6.569066e-001	6.655613e-001	6.741939e-001	1.014507e+000	1.011176e+000	1.012013e+000	9.866416e-001	9.911424e-001	9.953951e-001	9.995591e-001	8.248180e-001	8.143927e-001	8.040923e-001	1.151934e+000	1.089942e+000	1.047826e+000	1.125001e+000	1.174056e+000	1.020328e+000	9.623622e-001	1.195664e+000	1.055632e+000	1.237663e+000	1.090290e+000	9.022792e-001	8.520946e-001	1.106906e+000	1.184383e+000	1.261490e+000	1.308431e+000	1.308766e+000	1.298947e+000	1.254088e+000	1.100742e+000	7.044180e-001	1.053651e+000	1.083973e+000	1.049359e+000	1.041872e+000	7.333840e-001	1.082039e+000	1.018870e+000	1.018918e+000	5.942104e-001	6.047488e-001	5.651809e-001	1.014556e+000	6.146832e-001	9.737615e-001	6.925181e-001	1.076317e+000	9.736577e-001	1.117459e+000	1.063065e+000	1.305220e+000	1.145900e+000	1.135577e+000	1.054008e+000	1.072646e+000	1.271594e+000	1.083241e+000	1.217129e+000	1.026635e+000	1.208949e+000	1.128387e+000	1.138708e+000	1.130777e+000	7.906237e-001	8.025133e-001	1.069921e+000	5.883976e-001	1.021828e+000	1.076176e+000	1.012410e+000	1.236453e+000	7.124978e-001	7.251817e-001	7.338264e-001	1.004393e+000	1.131504e+000	1.157660e+000	1.282935e+000	1.110758e+000	1.060909e+000	1.063665e+000	1.064584e+000	1.066447e+000	9.852962e-001	9.978535e-001	1.065344e+000	1.064820e+000	1.061215e+000	1.058108e+000	1.042072e+000	1.043785e+000	1.033825e+000	1.091268e+000	7.105221e-001	7.713427e-001	7.208620e-001	7.146323e-001	1.045271e+000	1.042742e+000	9.200913e-001	9.095629e-001	1.060722e+000	1.068407e+000	1.027336e+000	9.511332e-001	9.402247e-001	9.323558e-001	9.770529e-001	1.055994e+000	1.039833e+000	1.024423e+000	1.010938e+000	7.827869e-001	7.712216e-001	7.637153e-001	7.522513e-001	7.452293e-001	8.911826e-001	8.829393e-001	8.711771e-001	8.628975e-001	8.511978e-001	1.047840e+000	1.040171e+000	1.032933e+000	6.193099e-001	6.273124e-001	6.325036e-001	6.416397e-001	6.476179e-001	9.620364e-001	9.765420e-001	7.471626e-001	7.563227e-001	8.604978e-001	8.732018e-001	8.863848e-001	1.021326e+000	1.023430e+000	1.025599e+000	1.027684e+000	1.028686e+000	1.030070e+000	1.029531e+000	1.028977e+000	1.026733e+000	1.022750e+000	1.019566e+000	1.003361e+000	6.715881e-001	5.668347e-001	5.811139e-001	7.700682e-001	7.792333e-001	7.926689e-001	8.013764e-001	8.144206e-001	8.266139e-001	8.390576e-001	9.913330e-001	1.006446e+000	1.049223e+000	1.054079e+000	1.056674e+000	9.148824e-001	9.773596e-001	1.023047e+000	1.042148e+000	1.061776e+000	8.990913e-001	9.112823e-001	9.232786e-001	9.362888e-001	9.491752e-001	6.578980e-001	6.648470e-001	6.757474e-001	6.854886e-001	1.017570e+000	1.018100e+000	9.871951e-001	9.963114e-001	8.428374e-001	8.309269e-001	8.226123e-001	8.107249e-001	1.126270e+000	1.111867e+000	1.185601e+000	1.275111e+000	1.145267e+000	1.061274e+000	1.071575e+000	1.219424e+000	1.034669e+000	1.104281e+000	1.073959e+000	1.263989e+000	1.091910e+000	1.166516e+000	7.086715e-001	1.125055e+000	1.129751e+000	1.196475e+000	1.147263e+000	1.055876e+000	9.748631e-001	1.065703e+000	8.046651e-001	1.049214e+000	1.053390e+000	9.918129e-001	9.680824e-001	9.032166e-001	1.236607e+000	7.361340e-001	9.922620e-001	9.803914e-001	8.753660e-001	1.052989e+000	1.021491e+000	1.241334e+000	1.107845e+000	1.051558e+000	1.120602e+000	1.059351e+000	1.306087e+000	1.251602e+000	1.080622e+000	1.023888e+000	6.215519e-001	6.322848e-001	1.076946e+000	1.131294e+000	1.092078e+000	1.286622e+000	1.139443e+000	1.076018e+000	1.221598e+000	1.204134e+000	6.013666e-001	1.109960e+000	1.029912e+000	1.026229e+000	6.104549e-001	7.285424e-001	7.502036e-001	1.016500e+000	1.152285e+000	1.174958e+000	1.129127e+000	1.059793e+000	1.061478e+000	1.003835e+000	1.060561e+000	1.056994e+000	1.048600e+000	1.087131e+000	7.438242e-001	1.047497e+000	1.047319e+000	9.208130e-001	1.067386e+000	1.030449e+000	1.037089e+000	9.523195e-001	9.376573e-001	9.730729e-001	1.060272e+000	1.043769e+000	1.028983e+000	1.018814e+000	7.857322e-001	7.673697e-001	7.522206e-001	8.835232e-001	8.636331e-001	1.046605e+000	1.040454e+000	6.461328e-001	6.619908e-001	9.840797e-001	7.728781e-001	8.934412e-001	1.021227e+000	1.023325e+000	1.025373e+000	1.026361e+000	1.025287e+000	1.023860e+000	1.013434e+000	1.011898e+000	1.028342e+000	8.700747e-001	6.024801e-001	5.669644e-001	5.859537e-001	5.929614e-001	7.956557e-001	8.171280e-001	8.365864e-001	8.463260e-001	8.605217e-001	9.999783e-001	1.014964e+000	1.044463e+000	1.051244e+000	1.055885e+000	8.453958e-001	9.524871e-001	1.030486e+000	1.048514e+000	1.067602e+000	1.086899e+000	9.073455e-001	9.198031e-001	9.317244e-001	9.443599e-001	9.594570e-001	9.694099e-001	6.787237e-001	6.952482e-001	1.022830e+000	1.021817e+000	9.808774e-001	1.000528e+000	1.008500e+000	8.438048e-001	8.241125e-001	1.081642e+000	1.128090e+000	1.122879e+000	1.097662e+000	1.041422e+000	1.072526e+000	1.122848e+000	1.099972e+000	1.192042e+000	1.142700e+000	1.110477e+000	1.092739e+000	1.146771e+000	1.222849e+000	1.245549e+000	1.045784e+000	1.026653e+000	7.175256e-001	1.088039e+000	1.056289e+000	1.108923e+000	9.851233e-001	1.127400e+000	1.176063e+000	7.594113e-001	1.050554e+000	9.961157e-001	9.713964e-001	1.061979e+000	1.066792e+000	1.092880e+000	1.078971e+000	1.120457e+000	1.061979e+000	1.067143e+000	1.036089e+000	7.554207e-001	6.085334e-001	1.012303e+000	1.009151e+000	1.107967e+000	1.112302e+000	1.287197e+000	1.057740e+000	1.040657e+000	1.140495e+000	1.072158e+000	1.204202e+000	1.159155e+000	9.626801e-001	1.233317e+000	1.000082e+000	9.858352e-001	1.056585e+000	1.255695e+000	1.054380e+000	1.077662e+000	1.019934e+000	1.266301e+000	1.139531e+000	1.023132e+000	1.220482e+000	1.206905e+000	6.