# vtk DataFile Version 3.0
vtk output
ASCII
DATASET UNSTRUCTURED_GRID
POINTS 5233 float
9.997500e-001	-3.632392e-005	0.0	9.990000e-001	-1.449359e-004	0.0	9.977600e-001	-3.216335e-004	0.0	9.960200e-001	-5.582981e-004	0.0	9.937800e-001	-8.332977e-004	0.0	9.910500e-001	-1.109523e-003	0.0	9.878400e-001	-1.341216e-003	0.0	9.841300e-001	-1.489374e-003	0.0	9.799500e-001	-1.538855e-003	0.0	9.752800e-001	-1.522351e-003	0.0	9.701500e-001	-1.524476e-003	0.0	9.645400e-001	-1.667248e-003	0.0	9.584700e-001	-2.076353e-003	0.0	9.519400e-001	-2.843401e-003	0.0	9.449600e-001	-3.998591e-003	0.0	9.375400e-001	-5.507215e-003	0.0	9.296900e-001	-7.287610e-003	0.0	9.214000e-001	-9.244339e-003	0.0	9.127000e-001	-1.127985e-002	0.0	9.035800e-001	-1.332897e-002	0.0	8.940600e-001	-1.534682e-002	0.0	8.841500e-001	-1.731388e-002	0.0	8.738500e-001	-1.922713e-002	0.0	8.631800e-001	-2.108627e-002	0.0	8.521600e-001	-2.289226e-002	0.0	8.407700e-001	-2.465029e-002	0.0	8.290500e-001	-2.635333e-002	0.0	8.170100e-001	-2.799764e-002	0.0	8.046400e-001	-2.958179e-002	0.0	7.919700e-001	-3.110057e-002	0.0	7.790100e-001	-3.255428e-002	0.0	7.657800e-001	-3.394553e-002	0.0	7.522800e-001	-3.528251e-002	0.0	7.385200e-001	-3.657525e-002	0.0	7.245300e-001	-3.783420e-002	0.0	7.103200e-001	-3.907287e-002	0.0	6.958900e-001	-4.030568e-002	0.0	6.812700e-001	-4.154350e-002	0.0	6.664700e-001	-4.279716e-002	0.0	6.515000e-001	-4.407508e-002	0.0	6.363800e-001	-4.538205e-002	0.0	6.211300e-001	-4.671986e-002	0.0	6.057600e-001	-4.808822e-002	0.0	5.902800e-001	-4.948411e-002	0.0	5.747100e-001	-5.090113e-002	0.0	5.590600e-001	-5.233166e-002	0.0	5.433600e-001	-5.376450e-002	0.0	5.276100e-001	-5.518989e-002	0.0	5.118400e-001	-5.659440e-002	0.0	4.960500e-001	-5.796671e-002	0.0	4.802700e-001	-5.929266e-002	0.0	4.645100e-001	-6.055992e-002	0.0	4.487800e-001	-6.175640e-002	0.0	4.331100e-001	-6.286910e-002	0.0	4.175000e-001	-6.388794e-002	0.0	4.019700e-001	-6.480221e-002	0.0	3.865400e-001	-6.560230e-002	0.0	3.712300e-001	-6.627977e-002	0.0	3.560400e-001	-6.682806e-002	0.0	3.409900e-001	-6.724074e-002	0.0	3.261100e-001	-6.751249e-002	0.0	3.114000e-001	-6.763974e-002	0.0	2.968700e-001	-6.761944e-002	0.0	2.825500e-001	-6.744967e-002	0.0	2.684500e-001	-6.712951e-002	0.0	2.545700e-001	-6.665840e-002	0.0	2.409400e-001	-6.603748e-002	0.0	2.275700e-001	-6.526819e-002	0.0	2.144700e-001	-6.435256e-002	0.0	2.016600e-001	-6.329410e-002	0.0	1.891400e-001	-6.209535e-002	0.0	1.769300e-001	-6.076119e-002	0.0	1.650400e-001	-5.929631e-002	0.0	1.534900e-001	-5.770740e-002	0.0	1.422900e-001	-5.600072e-002	0.0	1.314400e-001	-5.418134e-002	0.0	1.209500e-001	-5.225623e-002	0.0	1.108500e-001	-5.023705e-002	0.0	1.011300e-001	-4.812836e-002	0.0	9.181000e-002	-4.594119e-002	0.0	8.290000e-002	-4.368522e-002	0.0	7.440000e-002	-4.136782e-002	0.0	6.633000e-002	-3.900207e-002	0.0	5.869000e-002	-3.659588e-002	0.0	5.149000e-002	-3.416014e-002	0.0	4.474000e-002	-3.170609e-002	0.0	3.844000e-002	-2.924130e-002	0.0	3.260000e-002	-2.677678e-002	0.0	2.723000e-002	-2.432375e-002	0.0	2.232000e-002	-2.188336e-002	0.0	1.790000e-002	-1.947598e-002	0.0	1.395000e-002	-1.709492e-002	0.0	1.049000e-002	-1.475421e-002	0.0	7.520000e-003	-1.245495e-002	0.0	5.040000e-003	-1.019451e-002	0.0	3.050000e-003	-7.964107e-003	0.0	1.560000e-003	-5.760625e-003	0.0	5.600000e-004	-3.535695e-003	0.0	6.000000e-005	-1.223032e-003	0.0	0.000000e+000	0.000000e+000	0.0	6.000000e-005	1.502916e-003	0.0	5.600000e-004	4.658207e-003	0.0	1.560000e-003	7.725162e-003	0.0	3.050000e-003	1.065288e-002	0.0	5.040000e-003	1.345135e-002	0.0	7.520000e-003	1.610206e-002	0.0	1.049000e-002	1.860981e-002	0.0	1.395000e-002	2.098024e-002	0.0	1.790000e-002	2.321975e-002	0.0	2.232000e-002	2.532642e-002	0.0	2.723000e-002	2.731861e-002	0.0	3.260000e-002	2.919288e-002	0.0	3.844000e-002	3.096221e-002	0.0	4.474000e-002	3.263180e-002	0.0	5.149000e-002	3.420729e-002	0.0	5.869000e-002	3.569628e-002	0.0	6.633000e-002	3.710365e-002	0.0	7.440000e-002	3.843408e-002	0.0	8.290000e-002	3.969338e-002	0.0	9.181000e-002	4.088383e-002	0.0	1.011300e-001	4.201012e-002	0.0	1.108500e-001	4.307494e-002	0.0	1.209500e-001	4.407952e-002	0.0	1.314400e-001	4.502747e-002	0.0	1.422900e-001	4.591806e-002	0.0	1.534900e-001	4.675200e-002	0.0	1.650400e-001	4.753007e-002	0.0	1.769300e-001	4.825162e-002	0.0	1.891400e-001	4.891495e-002	0.0	2.016600e-001	4.951859e-002	0.0	2.144700e-001	5.006019e-002	0.0	2.275700e-001	5.053791e-002	0.0	2.409400e-001	5.094881e-002	0.0	2.545700e-001	5.129014e-002	0.0	2.684500e-001	5.155901e-002	0.0	2.825500e-001	5.175227e-002	0.0	2.968700e-001	5.186740e-002	0.0	3.114000e-001	5.190184e-002	0.0	3.261100e-001	5.185339e-002	0.0	3.409900e-001	5.172043e-002	0.0	3.560400e-001	5.150159e-002	0.0	3.712300e-001	5.119651e-002	0.0	3.865400e-001	5.080554e-002	0.0	4.019700e-001	5.032915e-002	0.0	4.175000e-001	4.976903e-002	0.0	4.331100e-001	4.912766e-002	0.0	4.487800e-001	4.840825e-002	0.0	4.645100e-001	4.761366e-002	0.0	4.802700e-001	4.674862e-002	0.0	4.960500e-001	4.581728e-002	0.0	5.118400e-001	4.482390e-002	0.0	5.276100e-001	4.377410e-002	0.0	5.433600e-001	4.267148e-002	0.0	5.590600e-001	4.152149e-002	0.0	5.747100e-001	4.032715e-002	0.0	5.902800e-001	3.909340e-002	0.0	6.057600e-001	3.782339e-002	0.0	6.211300e-001	3.652085e-002	0.0	6.363800e-001	3.518867e-002	0.0	6.515000e-001	3.382990e-002	0.0	6.664700e-001	3.244893e-002	0.0	6.812700e-001	3.105108e-002	0.0	6.958900e-001	2.964183e-002	0.0	7.103200e-001	2.822802e-002	0.0	7.245300e-001	2.682001e-002	0.0	7.385200e-001	2.542673e-002	0.0	7.522800e-001	2.405937e-002	0.0	7.657800e-001	2.273192e-002	0.0	7.790100e-001	2.145638e-002	0.0	7.919700e-001	2.024282e-002	0.0	8.046400e-001	1.910099e-002	0.0	8.170100e-001	1.803595e-002	0.0	8.290500e-001	1.704930e-002	0.0	8.407700e-001	1.613292e-002	0.0	8.521600e-001	1.527333e-002	0.0	8.631800e-001	1.445211e-002	0.0	8.738500e-001	1.364042e-002	0.0	8.841500e-001	1.280905e-002	0.0	8.940600e-001	1.192990e-002	0.0	9.035800e-001	1.097995e-002	0.0	9.127000e-001	9.950287e-003	0.0	9.214000e-001	8.852590e-003	0.0	9.296900e-001	7.716838e-003	0.0	9.375400e-001	6.597710e-003	0.0	9.449600e-001	5.554222e-003	0.0	9.519400e-001	4.642916e-003	0.0	9.584700e-001	3.898560e-003	0.0	9.645400e-001	3.322970e-003	0.0	9.701500e-001	2.884477e-003	0.0	9.752800e-001	2.532658e-003	0.0	9.799500e-001	2.213011e-003	0.0	9.841300e-001	1.890378e-003	0.0	9.878400e-001	1.549868e-003	0.0	9.910500e-001	1.202627e-003	0.0	9.937800e-001	8.673200e-004	0.0	9.960200e-001	5.677781e-004	0.0	9.977600e-001	3.233970e-004	0.0	9.990000e-001	1.450971e-004	0.0	9.997500e-001	3.632648e-005	0.0	1.000000e+000	0.000000e+000	0.0	1.984229e+001	2.506660e+000	0.0	1.937166e+001	4.973800e+000	0.0	1.859553e+001	7.362490e+000	0.0	1.752613e+001	9.635070e+000	0.0	1.618034e+001	1.175571e+001	0.0	1.457937e+001	1.369094e+001	0.0	1.274848e+001	1.541027e+001	0.0	1.071654e+001	1.688656e+001	0.0	8.515590e+000	1.809654e+001	0.0	6.180340e+000	1.902113e+001	0.0	3.747630e+000	1.964575e+001	0.0	1.255810e+000	1.996053e+001	0.0	-1.255810e+000	1.996053e+001	0.0	-3.747630e+000	1.964574e+001	0.0	-6.180340e+000	1.902113e+001	0.0	-8.515590e+000	1.809654e+001	0.0	-1.071654e+001	1.688656e+001	0.0	-1.274848e+001	1.541026e+001	0.0	-1.457937e+001	1.369094e+001	0.0	-1.618034e+001	1.175570e+001	0.0	-1.752613e+001	9.635070e+000	0.0	-1.859553e+001	7.362490e+000	0.0	-1.937166e+001	4.973800e+000	0.0	-1.984229e+001	2.506660e+000	0.0	-2.000000e+001	0.000000e+000	0.0	-1.984229e+001	-2.506670e+000	0.0	-1.937166e+001	-4.973800e+000	0.0	-1.859553e+001	-7.362490e+000	0.0	-1.752613e+001	-9.635080e+000	0.0	-1.618034e+001	-1.175571e+001	0.0	-1.457937e+001	-1.369094e+001	0.0	-1.274848e+001	-1.541027e+001	0.0	-1.071653e+001	-1.688656e+001	0.0	-8.515580e+000	-1.809654e+001	0.0	-6.180340e+000	-1.902113e+001	0.0	-3.747620e+000	-1.964575e+001	0.0	-1.255810e+000	-1.996053e+001	0.0	1.255810e+000	-1.996053e+001	0.0	3.747630e+000	-1.964574e+001	0.0	6.180340e+000	-1.902113e+001	0.0	8.515590e+000	-1.809654e+001	0.0	1.071654e+001	-1.688656e+001	0.0	1.274848e+001	-1.541026e+001	0.0	1.457937e+001	-1.369094e+001	0.0	1.618034e+001	-1.175570e+001	0.0	1.752614e+001	-9.635070e+000	0.0	1.859553e+001	-7.362490e+000	0.0	1.937166e+001	-4.973790e+000	0.0	1.984229e+001	-2.506660e+000	0.0	2.000000e+001	0.000000e+000	0.0	6.053196e-002	-4.480072e-002	0.0	6.603010e-001	-5.726128e-002	0.0	4.259324e-001	6.368631e-002	0.0	6.897864e-001	4.376414e-002	0.0	3.793429e-001	-7.983797e-002	0.0	9.994630e-001	-6.990461e-004	0.0	9.985528e-001	-1.276484e-003	0.0	7.738551e-001	-4.517428e-002	0.0	6.899284e-001	-5.437265e-002	0.0	-1.435677e-003	7.078020e-003	0.0	7.468146e-001	-4.841382e-002	0.0	5.835912e-001	5.394826e-002	0.0	9.927559e-001	-3.369141e-003	0.0	9.898250e-001	-4.069450e-003	0.0	5.991393e-001	5.261601e-002	0.0	7.188066e-001	-5.144764e-002	0.0	-1.541639e-003	9.738060e-004	0.0	9.863920e-001	-4.737670e-003	0.0	9.824709e-001	-5.351470e-003	0.0	-1.317050e-003	-5.541891e-003	0.0	6.452450e-001	-5.871173e-002	0.0	8.245460e-001	-3.790623e-002	0.0	7.997970e-001	-4.168634e-002	0.0	3.488124e-001	6.536182e-002	0.0	8.479645e-001	-3.387496e-002	0.0	2.475624e-001	6.367066e-002	0.0	8.699855e-001	-2.960785e-002	0.0	9.998780e-003	2.280112e-002	0.0	8.904925e-001	-2.513949e-002	0.0	7.675484e-002	-5.026967e-002	0.0	9.094016e-001	-2.053796e-002	0.0	-1.883970e-003	-2.702400e-003	0.0	9.421113e-001	-1.202328e-002	0.0	9.266274e-001	-1.601753e-002	0.0	1.796459e-002	-2.488432e-002	0.0	4.260348e-001	-7.760231e-002	0.0	8.591594e-001	-3.176651e-002	0.0	9.558563e-001	-9.041843e-003	0.0	9.780616e-001	-5.937533e-003	0.0	9.678575e-001	-7.164686e-003	0.0	1.579292e-001	-6.891276e-002	0.0	9.001544e-001	-2.284708e-002	0.0	7.604664e-001	-4.682354e-002	0.0	9.971279e-001	-1.983955e-003	0.0	5.992795e-001	-6.311949e-002	0.0	4.417541e-001	-7.662112e-002	0.0	5.366408e-001	-6.899945e-002	0.0	4.733475e-001	-7.436560e-002	0.0	5.050134e-001	-7.179430e-002	0.0	4.891708e-001	-7.311344e-002	0.0	1.246056e-001	-6.268067e-002	0.0	2.780154e-002	-3.060696e-002	0.0	3.948170e-001	-7.922040e-002	0.0	4.607418e-002	-3.918
[...]
POINT_DATA 5233

SCALARS Density float 1
LOOKUP_TABLE default
1.160704e+000	1.135336e+000	1.115228e+000	1.096333e+000	1.079318e+000	1.067413e+000	1.064644e+000	1.072900e+000	1.090008e+000	1.111057e+000	1.130477e+000	1.143826e+000	1.149102e+000	1.146114e+000	1.135707e+000	1.119467e+000	1.099396e+000	1.077683e+000	1.056424e+000	1.037298e+000	1.021097e+000	1.007774e+000	9.967465e-001	9.874009e-001	9.792142e-001	9.719221e-001	9.655081e-001	9.601258e-001	9.559644e-001	9.531797e-001	9.518315e-001	9.517976e-001	9.528780e-001	9.547292e-001	9.570624e-001	9.595246e-001	9.618336e-001	9.637757e-001	9.651437e-001	9.659004e-001	9.659196e-001	9.653193e-001	9.643253e-001	9.633811e-001	9.618464e-001	9.589608e-001	9.585346e-001	9.696793e-001	9.769730e-001	9.173372e-001	7.604410e-001	6.725844e-001	6.712776e-001	6.810323e-001	6.856293e-001	6.877907e-001	6.913691e-001	6.965834e-001	7.026766e-001	7.093900e-001	7.167356e-001	7.246893e-001	7.331703e-001	7.421508e-001	7.515911e-001	7.615208e-001	7.719542e-001	7.828368e-001	7.940365e-001	8.054705e-001	8.171202e-001	8.291160e-001	8.416199e-001	8.547209e-001	8.683427e-001	8.823197e-001	8.966054e-001	9.112766e-001	9.263434e-001	9.417714e-001	9.576067e-001	9.738180e-001	9.904306e-001	1.007452e+000	1.024913e+000	1.042881e+000	1.061388e+000	1.080541e+000	1.100521e+000	1.121409e+000	1.143463e+000	1.167065e+000	1.192409e+000	1.220061e+000	1.250215e+000	1.282631e+000	1.313794e+000	1.343802e+000	1.349713e+000	1.340401e+000	1.334429e+000	1.301651e+000	1.228980e+000	1.154258e+000	1.075193e+000	9.997718e-001	9.335127e-001	8.783844e-001	8.340146e-001	7.991474e-001	7.718648e-001	7.504653e-001	7.338984e-001	7.209125e-001	7.107720e-001	7.032376e-001	6.979025e-001	6.942467e-001	6.917912e-001	6.899733e-001	6.883232e-001	6.868354e-001	6.859184e-001	6.857953e-001	6.862263e-001	6.866831e-001	6.869184e-001	6.867811e-001	6.861392e-001	6.849468e-001	6.834303e-001	6.818299e-001	6.803164e-001	6.788400e-001	6.773185e-001	6.756121e-001	6.736603e-001	6.714376e-001	6.688915e-001	6.660539e-001	6.629748e-001	6.598255e-001	6.566653e-001	6.535682e-001	6.503785e-001	6.472992e-001	6.450894e-001	6.443802e-001	6.434410e-001	6.372114e-001	6.276503e-001	6.848019e-001	8.573651e-001	9.814646e-001	9.839674e-001	9.711445e-001	9.686605e-001	9.702339e-001	9.713245e-001	9.727599e-001	9.752182e-001	9.784472e-001	9.821541e-001	9.862791e-001	9.907125e-001	9.953282e-001	9.999382e-001	1.004368e+000	1.008377e+000	1.011772e+000	1.014307e+000	1.015800e+000	1.016095e+000	1.015130e+000	1.012996e+000	1.009985e+000	1.006694e+000	1.004021e+000	1.003133e+000	1.005292e+000	1.011430e+000	1.021712e+000	1.035193e+000	1.049892e+000	1.063525e+000	1.074147e+000	1.080316e+000	1.081482e+000	1.078240e+000	1.072459e+000	1.066933e+000	1.064425e+000	1.066766e+000	1.074276e+000	1.085652e+000	1.099651e+000	1.115165e+000	1.132680e+000	1.154091e+000	1.142220e+000	9.993601e-001	9.998126e-001	9.998365e-001	9.997535e-001	9.996912e-001	9.996137e-001	9.995187e-001	9.993973e-001	9.992638e-001	9.991680e-001	9.991144e-001	9.991629e-001	9.992929e-001	9.995407e-001	9.997497e-001	9.999200e-001	1.000017e+000	1.000077e+000	1.000116e+000	1.000134e+000	1.000144e+000	1.000149e+000	1.000153e+000	1.000159e+000	1.000163e+000	1.000171e+000	1.000184e+000	1.000200e+000	1.000224e+000	1.000259e+000	1.000298e+000	1.000360e+000	1.000420e+000	1.000519e+000	1.000606e+000	1.000708e+000	1.000810e+000	1.000843e+000	1.000848e+000	1.000784e+000	1.000716e+000	1.000615e+000	1.000520e+000	1.000424e+000	1.000336e+000	1.000229e+000	1.000147e+000	1.000148e+000	9.996462e-001	9.990213e-001	1.010062e+000	9.658931e-001	6.535541e-001	9.826002e-001	7.008727e-001	1.141666e+000	1.126221e+000	9.559666e-001	9.638394e-001	1.278421e+000	9.569547e-001	9.782495e-001	1.082394e+000	1.076161e+000	9.712486e-001	9.603170e-001	1.336489e+000	1.077357e+000	1.085958e+000	1.329814e+000	9.661136e-001	9.678438e-001	9.593581e-001	6.697823e-001	9.806638e-001	6.848358e-001	9.973284e-001	9.653785e-001	1.019504e+000	9.766354e-001	1.049871e+000	1.343858e+000	1.118466e+000	1.086288e+000	1.146346e+000	6.896000e-001	9.884752e-001	1.133966e+000	1.099372e+000	1.125828e+000	8.587341e-001	1.033605e+000	9.560111e-001	1.109100e+000	9.638997e-001	6.809302e-001	9.623802e-001	6.869766e-001	9.782566e-001	8.478860e-001	9.002351e-001	1.103135e+000	6.956571e-001	1.045354e+000	6.923011e-001	7.292428e-001	7.138601e-001	1.083108e+000	7.467697e-001	1.103737e+000	8.721732e-001	8.216676e-001	9.605710e-001	9.295907e-001	9.609106e-001	8.458633e-001	9.648376e-001	1.007545e+000	1.124163e+000	1.094234e+000	1.222126e+000	8.672169e-001	1.067799e+000	1.128939e+000	1.113866e+000	1.221978e+000	9.737763e-001	7.765081e-001	9.582488e-001	9.584683e-001	9.570259e-001	9.147283e-001	7.985540e-001	9.630195e-001	9.651368e-001	1.027454e+000	1.250697e+000	1.169920e+000	7.070631e-001	8.335617e-001	1.175596e+000	7.873464e-001	9.448911e-001	7.377758e-001	7.661159e-001	6.713794e-001	9.621881e-001	1.322733e+000	1.308289e+000	7.521674e-001	1.340864e+000	7.999453e-001	7.280237e-001	7.559859e-001	6.949437e-001	6.567543e-001	1.108420e+000	6.370031e-001	6.484307e-001	1.073533e+000	1.075895e+000	1.008316e+000	6.438674e-001	6.504129e-001	6.633155e-001	1.032165e+000	1.014168e+000	7.066565e-001	1.070542e+000	1.072540e+000	1.055739e+000	6.998565e-001	7.186402e-001	6.799261e-001	6.833211e-001	6.927860e-001	6.754844e-001	6.483239e-001	6.600739e-001	6.929908e-001	6.935870e-001	9.736995e-001	6.911814e-001	6.880464e-001	9.765305e-001	9.957662e-001	9.987825e-001	9.903050e-001	1.012894e+000	1.006791e+000	1.014661e+000	1.015736e+000	1.009781e+000	1.010784e+000	1.065627e+000	1.021786e+000	1.075892e+000	1.012892e+000	1.008970e+000	1.014794e+000	1.015675e+000	1.002934e+000	1.010183e+000	9.862948e-001	9.945165e-001	9.746672e-001	9.793015e-001	9.707783e-001	9.724113e-001	6.897236e-001	6.864082e-001	6.929800e-001	6.922417e-001	7.403124e-001	6.931017e-001	9.121809e-001	7.756024e-001	8.100096e-001	1.091336e+000	1.132897e+000	9.629855e-001	7.212661e-001	9.793039e-001	1.158993e+000	8.301043e-001	1.025640e+000	7.029218e-001	7.116965e-001	6.817142e-001	6.971550e-001	1.068920e+000	1.070293e+000	6.778616e-001	1.075484e+000	1.084062e+000	6.728032e-001	6.665938e-001	1.044054e+000	1.167324e+000	1.123609e+000	1.137849e+000	9.656767e-001	1.063891e+000	1.095340e+000	6.337138e-001	1.280217e+000	1.195172e+000	9.931247e-001	8.860574e-001	7.562236e-001	7.282661e-001	1.253815e+000	1.298431e+000	7.620968e-001	9.644400e-001	1.059636e+000	1.215476e+000	9.849322e-001	9.654269e-001	9.611815e-001	1.084151e+000	7.351581e-001	9.900839e-001	9.763152e-001	9.636489e-001	1.311968e+000	8.155202e-001	1.167164e+000	1.121345e+000	8.767994e-001	9.631550e-001	9.663448e-001	6.760690e-001	9.794331e-001	7.067266e-001	1.030932e+000	9.632238e-001	1.036699e+000	8.940403e-001	9.803815e-001	1.015623e+000	7.072799e-001	9.832807e-001	6.998353e-001	1.013058e+000	1.076614e+000	6.770707e-001	6.314995e-001	1.065374e+000	1.012936e+000	1.082638e+000	1.070048e+000	1.071754e+000	6.918265e-001	6.799735e-001	6.934498e-001	7.110521e-001	9.661677e-001	8.271875e-001	9.840850e-001	7.015487e-001	7.626033e-001	1.072680e+000	1.091189e+000	1.014230e+000	8.636898e-001	1.178225e+000	1.113277e+000	1.101466e+000	1.092674e+000	1.204639e+000	1.240992e+000	1.336561e+000	1.333117e+000	1.144725e+000	1.181844e+000	1.012160e+000	1.116026e+000	1.093092e+000	6.608510e-001	9.593957e-001	1.087130e+000	1.007852e+000	9.746737e-001	1.086119e+000	1.330071e+000	6.927754e-001	6.640564e-001	9.827334e-001	6.867421e-001	9.984034e-001	1.018616e+000	9.955864e-001	1.044695e+000	1.075016e+000	1.112927e+000	1.103115e+000	1.119305e+000	1.118959e+000	1.094477e+000	9.044415e-001	9.601650e-001	9.602563e-001	1.103467e+000	6.794430e-001	7.658701e-001	9.405713e-001	1.123508e+000	7.018682e-001	6.979808e-001	7.271675e-001	1.064906e+000	1.089783e+000	1.102792e+000	8.904338e-001	9.482671e-001	9.607489e-001	9.643420e-001	1.112670e+000	1.103808e+000	9.618705e-001	9.608373e-001	9.333304e-001	9.187144e-001	9.627235e-001	9.633822e-001	1.046809e+000	1.029265e+000	1.190643e+000	7.197833e-001	7.129125e-001	8.511786e-001	8.390682e-001	8.040842e-001	7.929808e-001	7.526722e-001	7.436495e-001	7.822433e-001	1.325474e+000	1.267050e+000	7.801737e-001	1.072961e+000	6.774043e-001	6.403558e-001	6.508874e-001	6.533826e-001	1.072071e+000	1.072336e+000	1.030957e+000	6.549734e-001	6.574773e-001	6.675080e-001	1.023182e+000	1.058386e+000	7.370652e-001	7.483480e-001	6.902214e-001	6.885164e-001	7.005681e-001	7.029867e-001	7.047059e-001	1.011440e+000	9.978562e-001	9.939607e-001	1.008670e+000	1.015705e+000	1.017538e+000	1.013918e+000	1.014917e+000	1.015055e+000	1.013636e+000	1.005351e+000	1.001702e+000	9.901551e-001	9.865757e-001	9.779785e-001	9.765993e-001	9.954935e-001	8.991709e-001	9.761806e-001	9.750904e-001	6.950009e-001	6.965601e-001	6.979229e-001	6.990621e-001	9.363159e-001	8.016553e-001	8.275241e-001	9.664543e-001	9.708602e-001	9.816874e-001	9.667829e-001	1.150286e+000	8.580614e-001	7.157695e-001	7.213716e-001	6.825043e-001	6.847445e-001	6.707973e-001	6.740112e-001	1.049671e+000	1.040143e+000	9.653125e-001	9.661424e-001	1.083630e+000	1.292107e+000	7.719691e-001	1.310727e+000	7.133861e-001	7.687065e-001	9.674262e-001	9.610929e-001	1.066463e+000	1.081861e+000	1.077024e+000	1.068446e+000	1.144928e+000	1.088832e+000	1.125872e+000	1.143568e+000	1.109068e+000	1.164672e+000	1.142831e+000	1.306310e+000	9.675785e-001	1.079046e+000	1.089467e+000	9.927071e-001	1.129629e+000	1.231206e+000	9.657351e-001	1.276043e+000	9.650450e-001	1.163660e+000	1.008301e+000	1.208186e+000	7.417929e-001	9.996650e-001	9.664974e-001	1.093831e+000	1.185684e+000	1.072249e+000	6.485076e-001	1.060000e+000	9.812444e-001	1.096796e+000	6.327732e-001	6.941695e-001	6.847632e-001	7.085162e-001	7.559531e-001	1.135215e+000	1.292041e+000	1.231321e+000	9.576443e-001	1.275074e+000	1.110619e+000	9.829448e-001	1.327117e+000	8.822005e-001	6.772815e-001	1.122581e+000	1.047189e+000	1.015966e+000	1.010016e+000	9.837888e-001	1.073916e+000	1.065050e+000	1.017655e+000	1.016321e+000	6.875122e-001	6.921156e-001	6.995224e-001	7.228418e-001	9.671358e-001	9.668724e-001	8.333151e-001	1.001067e+000	7.101340e-001	1.071372e+000	1.105238e+000	1.095755e+000	1.191435e+000	1.253887e+000	1.318781e+000	1.102954e+000	1.149242e+000	1.139236e+000	1.107879e+000	1.088960e+000	9.788816e-001	6.923505e-001	6.688006e-001	9.850829e-001	9.919323e-001	1.017995e+000	1.028852e+000	1.014883e+000	9.987624e-001	1.040667e+000	1.053443e+000	1.106710e+000	1.110331e+000	1.091755e+000	9.644873e-001	9.655083e-001	1.100998e+000	7.075095e-001	8.673426e-001	7.086587e-001	7.021542e-001	1.084315e+000	1.090529e+000	1.099919e+000	9.094060e-001	8.955649e-001	9.601775e-001	9.627291e-001	1.102905e+000	1.096988e+000	9.644460e-001	9.641591e-001	9.525463e-001	9.377522e-001	9.234427e-001	9.633314e-001	9.642157e-001	1.066357e+000	1.048704e+000	1.031450e+000	7.338858e-001	7.263959e-001	7.195421e-001	8.695681e-001	8.572838e-001	8.451972e-001	8.216886e-001	8.103682e-001	7.592416e-001	7.502979e-001	7.993534e-001	8.040895e-001	6.498827e-001	6.566311e-001	1.070359e+000	6.600065e-001	6.627070e-001	6.653970e-001	6.721070e-001	1.030822e+000	7.691964e-001	7.851820e-001	6.960234e-001	6.978884e-001	7.123976e-001	7.154799e-001	7.187661e-001	9.970413e-001	1.024807e+000	1.020398e+000	1.015910e+000	1.016006e+000	1.016123e+000	1.015354e+000	1.014133e+000	1.012372e+000	1.007205e+000	1.004050e+000	1.000581e+000	9.934771e-001	9.900187e-001	9.867915e-001	9.792815e-001	9.765467e-001	7.952168e-001	9.785807e-001	9.783245e-001	9.765633e-001	7.010903e-001	7.024558e-001	7.039533e-001	7.054243e-001	7.070351e-001	8.265704e-001	8.531803e-001	9.703412e-001	9.742761e-001	9.791563e-001	9.740495e-001	9.732083e-001	8.839758e-001	9.184914e-001	7.287881e-001	7.363953e-001	7.452554e-001	6.899649e-001	6.756013e-001	6.788567e-001	6.818862e-001	1.053460e+000	1.045916e+000	1.038095e+000	9.651167e-001	9.662566e-001	9.667880e-001	7.887552e-001	7.785175e-001	1.291623e+000	9.716989e-001	1.099566e+000	1.073770e+000	9.607105e-001	1.283908e+000	1.118029e+000	1.070666e+000	1.080620e+000	1.101868e+000	1.086195e+000	6.459708e-001	1.273833e+000	1.014497e+000	1.219477e+000	1.064645e+000	1.092552e+000	1.212202e+000	9.814495e-001	1.177539e+000	1.146880e+000	1.152861e+000	9.737625e-001	8.889850e-001	1.139766e+000	7.215728e-001	9.867713e-001	6.924013e-001	7.769205e-001	1.076766e+000	9.941483e-001	1.060695e+000	1.055704e+000	1.008334e+000	7.200000e-001	7.029242e-001	1.091399e+000	7.901767e-001	1.009655e+000	1.113941e+000	1.080861e+000	1.104678e+000	1.099666e+000	1.158813e+000	9.678981e-001	1.239718e+000	9.679789e-001	9.674544e-001	1.178985e+000	1.093875e+000	1.199360e+000	1.015758e+000	6.506818e-001	6.959692e-001	1.251304e+000	1.054727e+000	9.839104e-001	1.020428e+000	6.934563e-001	6.985336e-001	7.006469e-001	9.681402e-001	9.682973e-001	1.071570e+000	1.095669e+000	1.137686e+000	1.259044e+000	1.301372e+000	1.120466e+000	1.101738e+000	1.091402e+000	9.926716e-001	9.944599e-001	1.001542e+000	1.018406e+000	1.027931e+000	1.017577e+000	1.001999e+000	1.038156e+000	1.049003e+000	1.059927e+000	1.099966e+000	1.102012e+000	9.691320e-001	9.718319e-001	1.098487e+000	6.985054e-001	7.952212e-001	7.149443e-001	7.052180e-001	1.089191e+000	1.095571e+000	9.151406e-001	9.012852e-001	9.612248e-001	1.096534e+000	1.093400e+000	9.678647e-001	9.686230e-001	9.570819e-001	9.428412e-001	9.290220e-001	9.624280e-001	9.635405e-001	1.084696e+000	1.067190e+000	1.049898e+000	1.033397e+000	7.504023e-001	7.423338e-001	7.350854e-001	7.281120e-001	8.767535e-001	8.646007e-001	8.525502e-001	8.407707e-001	8.293553e-001	7.586577e-001	7.676925e-001	8.181637e-001	6.546224e-001	1.069699e+000	1.067535e+000	6.649707e-001	6.680773e-001	6.720044e-001	6.746660e-001	6.780134e-001	8.081176e-001	8.287331e-001	7.047967e-001	7.068099e-001	7.230362e-001	7.269546e-001	7.315987e-001	7.368197e-001	1.031480e+000	1.026676e+000	1.022952e+000	1.018780e+000	1.017862e+000	1.017226e+000	1.016387e+000	1.014716e+000	1.012729e+000	1.011028e+000	1.005671e+000	1.002432e+000	9.992853e-001	9.958767e-001	9.926082e-001	9.894592e-001	9.864948e-001	7.179262e-001	9.121967e-001	9.795161e-001	9.782799e-001	9.773914e-001	9.786606e-001	7.082484e-001	7.097532e-001	7.108361e-001	7.125095e-001	7.142962e-001	7.169185e-001	8.512356e-001	8.772588e-001	9.780778e-001	9.828184e-001	9.881573e-001	9.438984e-001	9.782561e-001	9.685560e-001	9.075603e-001	9.405868e-001	9.757747e-001	7.432681e-001	7.521476e-001	7.633946e-001	7.757853e-001	6.812057e-001	6.847110e-001	6.877837e-001	6.905659e-001	1.037293e+000	1.049824e+000	1.043587e+000	9.650897e-001	9.663814e-001	9.673400e-001	9.679762e-001	8.073836e-001	7.968168e-001	7.867902e-001	1.171979e+000	1.096343e+000	1.094944e+000	1.140188e+000	1.190489e+000	9.705672e-001	9.763660e-001	1.208376e+000	1.072706e+000	1.243145e+000	1.117722e+000	8.976968e-001	7.347845e-001	1.061284e+000	1.166258e+000	1.257513e+000	1.306505e+000	1.308257e+000	1.297380e+000	1.256796e+000	1.102039e+000	7.029026e-001	1.093886e+000	1.093327e+000	1.079416e+000	9.791361e-001	7.280786e-001	1.088855e+000	1.036837e+000	1.052670e+000	8.777930e-001	6.699192e-001	9.814401e-001	1.005020e+000	6.537111e-001	9.669705e-001	6.990158e-001	1.083868e+000	9.908733e-001	1.129698e+000	1.075739e+000	1.302860e+000	1.145434e+000	1.134369e+000	1.073034e+000	1.101127e+000	1.271598e+000	1.025835e+000	1.226099e+000	1.061244e+000	1.196608e+000	1.139476e+000	1.142098e+000	1.153888e+000	7.754823e-001	7.867282e-001	1.079385e+000	1.004275e+000	1.057280e+000	1.091702e+000	9.699666e-001	1.229130e+000	7.044917e-001	7.081208e-001	7.093526e-001	9.693639e-001	1.096420e+000	1.131913e+000	1.280956e+000	1.136323e+000	1.004071e+000	1.010233e+000	1.018876e+000	1.027121e+000	1.005536e+000	1.020658e+000	1.036517e+000	1.045800e+000	1.054752e+000	1.064907e+000	1.093809e+000	1.095086e+000	9.741436e-001	1.096289e+000	7.034656e-001	7.479813e-001	7.179019e-001	7.108656e-001	1.086735e+000	1.090861e+000	9.206853e-001	9.071834e-001	1.092536e+000	1.091571e+000	9.720885e-001	9.617656e-001	9.475944e-001	9.367177e-001	9.610942e-001	1.084638e+000	1.067969e+000	1.051331e+000	1.035913e+000	7.686768e-001	7.584600e-001	7.524167e-001	7.429091e-001	7.376521e-001	8.837628e-001	8.736039e-001	8.594581e-001	8.498748e-001	8.365581e-001	1.070034e+000	1.067478e+000	1.064633e+000	6.640718e-001	6.734086e-001	6.771289e-001	6.816737e-001	6.840207e-001	8.313343e-001	8.528412e-001	7.127211e-001	7.135909e-001	7.374015e-001	7.456551e-001	7.527604e-001	1.032248e+000	1.027733e+000	1.024797e+000	1.021874e+000	1.020311e+000	1.018661e+000	1.017444e+000	1.015576e+000	1.013355e+000	1.010080e+000	9.989970e-001	9.927593e-001	9.871073e-001	9.761678e-001	9.851740e-001	7.165141e-001	7.168172e-001	7.195404e-001	7.197387e-001	7.234946e-001	7.261106e-001	7.301938e-001	8.760930e-001	9.006448e-001	9.861109e-001	9.906093e-001	9.969818e-001	8.874734e-001	9.716491e-001	9.287909e-001	9.603647e-001	9.921640e-001	7.604774e-001	7.702944e-001	7.830598e-001	7.986317e-001	8.141025e-001	6.879721e-001	6.899339e-001	6.941670e-001	6.972321e-001	1.047738e+000	1.042039e+000	9.646993e-001	9.680304e-001	8.275315e-001	8.147753e-001	8.064155e-001	7.944368e-001	1.124338e+000	1.120509e+000	1.197240e+000	1.272752e+000	1.145135e+000	1.089939e+000	1.081548e+000	1.209921e+000	1.061844e+000	1.105109e+000	1.090653e+000	1.262973e+000	1.114957e+000	1.181044e+000	7.072318e-001	1.139964e+000	1.096355e+000	1.182376e+000	1.164511e+000	1.089988e+000	9.700551e-001	1.077614e+000	7.898538e-001	1.078117e+000	1.069615e+000	9.662215e-001	9.805310e-001	8.983839e-001	1.239991e+000	7.284057e-001	1.009863e+000	9.955168e-001	7.553730e-001	1.070893e+000	1.038217e+000	1.235103e+000	1.065862e+000	1.089681e+000	1.134353e+000	1.074016e+000	1.304576e+000	1.252575e+000	1.092026e+000	9.744736e-001	6.690698e-001	6.674767e-001	1.085912e+000	1.137133e+000	1.099652e+000	1.283612e+000	1.139149e+000	1.099987e+000	1.227458e+000	1.212836e+000	9.668220e-001	1.131497e+000	1.058589e+000	1.054316e+000	7.726082e-001	7.129016e-001	7.180905e-001	9.724758e-001	1.126523e+000	1.155644e+000	1.148674e+000	1.015401e+000	1.030086e+000	1.023600e+000	1.046272e+000	1.059531e+000	1.088573e+000	1.094436e+000	7.299021e-001	1.083572e+000	1.086398e+000	9.205533e-001	1.089976e+000	9.771164e-001	9.811990e-001	9.608723e-001	9.418069e-001	9.614564e-001	1.084426e+000	1.067626e+000	1.052221e+000	1.040409e+000	7.724850e-001	7.566221e-001	7.439600e-001	8.743618e-001	8.511955e-001	1.067975e+000	1.065058e+000	6.848772e-001	6.923191e-001	8.759315e-001	7.225166e-001	7.698464e-001	1.011289e+000	1.030190e+000	1.023969e+000	1.019738e+000	1.016783e+000	1.014310e+000	1.007085e+000	1.001699e+000	9.957717e-001	9.902588e-001	9.846820e-001	9.773375e-001	9.773225e-001	9.949163e-001	7.263430e-001	7.306872e-001	7.367440e-001	7.390794e-001	7.471648e-001	8.998939e-001	9.234238e-001	9.877639e-001	9.957428e-001	1.005638e+000	8.173343e-001	9.393613e-001	9.484553e-001	9.770651e-001	1.006470e+000	1.035455e+000	7.803419e-001	7.905733e-001	8.037948e-001	8.207554e-001	8.404259e-001	8.526128e-001	6.979328e-001	7.034773e-001	1.050542e+000	1.045770e+000	9.608045e-001	9.694935e-001	9.710223e-001	8.293530e-001	8.088845e-001	1.090112e+000	1.127097e+000	1.121421e+000	1.105257e+000	1.061591e+000	1.083021e+000	1.135978e+000	1.102112e+000	1.200092e+000	1.157280e+000	1.110087e+000	1.097306e+000	1.121739e+000	1.214984e+000	1.245259e+000	1.065738e+000	9.791658e-001	7.136179e-001	1.096049e+000	1.052735e+000	1.126943e+000	8.870826e-001	1.096187e+000	1.186388e+000	7.488729e-001	1.076720e+000	9.682260e-001	9.628293e-001	1.086567e+000	1.087469e+000	1.112017e+000	1.098600e+000	1.134575e+000	1.075386e+000	1.078912e+000	1.059554e+000	7.244116e-001	9.908768e-001	9.733722e-001	1.026413e+000	1.117069e+000	1.122748e+000	1.284532e+000	1.085624e+000	1.062584e+000	1.140462e+000	1.088452e+000	1.193209e+000	1.171707e+000	9.553764e-001	1.234882e+000	1.015505e+000	9.990720e-001	1.072025e+000	1.251445e+000	1.084434e+000	1.089870e+000	9.759889e-001	1.264101e+000	1.139474e+000	1.041623e+000	1.224131e+000	1.212672e+000	7.