# vtk DataFile Version 3.0
vtk output
ASCII
DATASET UNSTRUCTURED_GRID
POINTS 5233 float
9.997500e-001	-3.633155e-005	0.0	9.990000e-001	-1.454165e-004	0.0	9.977600e-001	-3.268914e-004	0.0	9.960200e-001	-5.865723e-004	0.0	9.937800e-001	-9.348153e-004	0.0	9.910500e-001	-1.387524e-003	0.0	9.878400e-001	-1.964903e-003	0.0	9.841300e-001	-2.690089e-003	0.0	9.799500e-001	-3.563172e-003	0.0	9.752800e-001	-4.570513e-003	0.0	9.701500e-001	-5.661236e-003	0.0	9.645400e-001	-6.776130e-003	0.0	9.584700e-001	-7.845850e-003	0.0	9.519400e-001	-8.823209e-003	0.0	9.449600e-001	-9.691205e-003	0.0	9.375400e-001	-1.046724e-002	0.0	9.296900e-001	-1.119412e-002	0.0	9.214000e-001	-1.192704e-002	0.0	9.127000e-001	-1.271435e-002	0.0	9.035800e-001	-1.359524e-002	0.0	8.940600e-001	-1.458944e-002	0.0	8.841500e-001	-1.570110e-002	0.0	8.738500e-001	-1.692175e-002	0.0	8.631800e-001	-1.823000e-002	0.0	8.521600e-001	-1.959700e-002	0.0	8.407700e-001	-2.099439e-002	0.0	8.290500e-001	-2.238472e-002	0.0	8.170100e-001	-2.373539e-002	0.0	8.046400e-001	-2.501954e-002	0.0	7.919700e-001	-2.621190e-002	0.0	7.790100e-001	-2.729736e-002	0.0	7.657800e-001	-2.826896e-002	0.0	7.522800e-001	-2.913041e-002	0.0	7.385200e-001	-2.989305e-002	0.0	7.245300e-001	-3.057463e-002	0.0	7.103200e-001	-3.119958e-002	0.0	6.958900e-001	-3.179604e-002	0.0	6.812700e-001	-3.239208e-002	0.0	6.664700e-001	-3.301580e-002	0.0	6.515000e-001	-3.369271e-002	0.0	6.363800e-001	-3.444393e-002	0.0	6.211300e-001	-3.528549e-002	0.0	6.057600e-001	-3.622843e-002	0.0	5.902800e-001	-3.727819e-002	0.0	5.747100e-001	-3.843405e-002	0.0	5.590600e-001	-3.969082e-002	0.0	5.433600e-001	-4.103708e-002	0.0	5.276100e-001	-4.246007e-002	0.0	5.118400e-001	-4.394133e-002	0.0	4.960500e-001	-4.546290e-002	0.0	4.802700e-001	-4.700252e-002	0.0	4.645100e-001	-4.853911e-002	0.0	4.487800e-001	-5.005152e-002	0.0	4.331100e-001	-5.151724e-002	0.0	4.175000e-001	-5.291761e-002	0.0	4.019700e-001	-5.423348e-002	0.0	3.865400e-001	-5.544753e-002	0.0	3.712300e-001	-5.654452e-002	0.0	3.560400e-001	-5.751269e-002	0.0	3.409900e-001	-5.834092e-002	0.0	3.261100e-001	-5.902005e-002	0.0	3.114000e-001	-5.954456e-002	0.0	2.968700e-001	-5.991021e-002	0.0	2.825500e-001	-6.011430e-002	0.0	2.684500e-001	-6.015651e-002	0.0	2.545700e-001	-6.003785e-002	0.0	2.409400e-001	-5.976083e-002	0.0	2.275700e-001	-5.932925e-002	0.0	2.144700e-001	-5.874775e-002	0.0	2.016600e-001	-5.802235e-002	0.0	1.891400e-001	-5.715857e-002	0.0	1.769300e-001	-5.616362e-002	0.0	1.650400e-001	-5.504445e-002	0.0	1.534900e-001	-5.380932e-002	0.0	1.422900e-001	-5.246577e-002	0.0	1.314400e-001	-5.101992e-002	0.0	1.209500e-001	-4.947879e-002	0.0	1.108500e-001	-4.785257e-002	0.0	1.011300e-001	-4.614508e-002	0.0	9.181000e-002	-4.436470e-002	0.0	8.290000e-002	-4.251802e-002	0.0	7.440000e-002	-4.060904e-002	0.0	6.633000e-002	-3.864585e-002	0.0	5.869000e-002	-3.663158e-002	0.0	5.149000e-002	-3.457125e-002	0.0	4.474000e-002	-3.246965e-002	0.0	3.844000e-002	-3.032788e-002	0.0	3.260000e-002	-2.814949e-002	0.0	2.723000e-002	-2.593793e-002	0.0	2.232000e-002	-2.368706e-002	0.0	1.790000e-002	-2.140830e-002	0.0	1.395000e-002	-1.908769e-002	0.0	1.049000e-002	-1.673123e-002	0.0	7.520000e-003	-1.433335e-002	0.0	5.040000e-003	-1.188613e-002	0.0	3.050000e-003	-9.378023e-003	0.0	1.560000e-003	-6.811052e-003	0.0	5.600000e-004	-4.149816e-003	0.0	6.000000e-005	-1.381940e-003	0.0	0.000000e+000	0.000000e+000	0.0	6.000000e-005	1.405928e-003	0.0	5.600000e-004	4.365605e-003	0.0	1.560000e-003	7.358240e-003	0.0	3.050000e-003	1.035357e-002	0.0	5.040000e-003	1.336037e-002	0.0	7.520000e-003	1.635063e-002	0.0	1.049000e-002	1.931744e-002	0.0	1.395000e-002	2.225386e-002	0.0	1.790000e-002	2.515351e-002	0.0	2.232000e-002	2.799851e-002	0.0	2.723000e-002	3.079831e-002	0.0	3.260000e-002	3.353284e-002	0.0	3.844000e-002	3.620550e-002	0.0	4.474000e-002	3.880916e-002	0.0	5.149000e-002	4.133769e-002	0.0	5.869000e-002	4.378879e-002	0.0	6.633000e-002	4.615633e-002	0.0	7.440000e-002	4.843452e-002	0.0	8.290000e-002	5.062016e-002	0.0	9.181000e-002	5.270474e-002	0.0	1.011300e-001	5.468472e-002	0.0	1.108500e-001	5.655398e-002	0.0	1.209500e-001	5.830481e-002	0.0	1.314400e-001	5.993475e-002	0.0	1.422900e-001	6.143497e-002	0.0	1.534900e-001	6.280051e-002	0.0	1.650400e-001	6.402779e-002	0.0	1.769300e-001	6.511225e-002	0.0	1.891400e-001	6.604932e-002	0.0	2.016600e-001	6.683627e-002	0.0	2.144700e-001	6.747084e-002	0.0	2.275700e-001	6.795286e-002	0.0	2.409400e-001	6.828237e-002	0.0	2.545700e-001	6.846112e-002	0.0	2.684500e-001	6.849208e-002	0.0	2.825500e-001	6.837970e-002	0.0	2.968700e-001	6.812981e-002	0.0	3.114000e-001	6.774930e-002	0.0	3.261100e-001	6.724698e-002	0.0	3.409900e-001	6.663232e-002	0.0	3.560400e-001	6.591506e-002	0.0	3.712300e-001	6.510700e-002	0.0	3.865400e-001	6.422011e-002	0.0	4.019700e-001	6.326526e-002	0.0	4.175000e-001	6.225429e-002	0.0	4.331100e-001	6.119853e-002	0.0	4.487800e-001	6.010843e-002	0.0	4.645100e-001	5.899171e-002	0.0	4.802700e-001	5.785655e-002	0.0	4.960500e-001	5.670768e-002	0.0	5.118400e-001	5.554756e-002	0.0	5.276100e-001	5.437764e-002	0.0	5.433600e-001	5.319457e-002	0.0	5.590600e-001	5.199473e-002	0.0	5.747100e-001	5.076987e-002	0.0	5.902800e-001	4.951208e-002	0.0	6.057600e-001	4.821053e-002	0.0	6.211300e-001	4.685452e-002	0.0	6.363800e-001	4.543277e-002	0.0	6.515000e-001	4.393520e-002	0.0	6.664700e-001	4.235512e-002	0.0	6.812700e-001	4.068958e-002	0.0	6.958900e-001	3.893927e-002	0.0	7.103200e-001	3.711036e-002	0.0	7.245300e-001	3.521790e-002	0.0	7.385200e-001	3.327945e-002	0.0	7.522800e-001	3.131988e-002	0.0	7.657800e-001	2.937208e-002	0.0	7.790100e-001	2.746958e-002	0.0	7.919700e-001	2.564573e-002	0.0	8.046400e-001	2.393527e-002	0.0	8.170100e-001	2.236701e-002	0.0	8.290500e-001	2.096472e-002	0.0	8.407700e-001	1.973765e-002	0.0	8.521600e-001	1.868689e-002	0.0	8.631800e-001	1.780507e-002	0.0	8.738500e-001	1.707045e-002	0.0	8.841500e-001	1.645796e-002	0.0	8.940600e-001	1.593770e-002	0.0	9.035800e-001	1.547528e-002	0.0	9.127000e-001	1.503269e-002	0.0	9.214000e-001	1.456587e-002	0.0	9.296900e-001	1.402093e-002	0.0	9.375400e-001	1.334099e-002	0.0	9.449600e-001	1.247051e-002	0.0	9.519400e-001	1.137575e-002	0.0	9.584700e-001	1.006184e-002	0.0	9.645400e-001	8.582965e-003	0.0	9.701500e-001	7.033501e-003	0.0	9.752800e-001	5.533186e-003	0.0	9.799500e-001	4.178969e-003	0.0	9.841300e-001	3.045222e-003	0.0	9.878400e-001	2.145557e-003	0.0	9.910500e-001	1.466840e-003	0.0	9.937800e-001	9.634700e-004	0.0	9.960200e-001	5.944945e-004	0.0	9.977600e-001	3.283575e-004	0.0	9.990000e-001	1.455501e-004	0.0	9.997500e-001	3.633366e-005	0.0	1.000000e+000	0.000000e+000	0.0	1.984229e+001	2.506660e+000	0.0	1.937166e+001	4.973800e+000	0.0	1.859553e+001	7.362490e+000	0.0	1.752613e+001	9.635070e+000	0.0	1.618034e+001	1.175571e+001	0.0	1.457937e+001	1.369094e+001	0.0	1.274848e+001	1.541027e+001	0.0	1.071654e+001	1.688656e+001	0.0	8.515590e+000	1.809654e+001	0.0	6.180340e+000	1.902113e+001	0.0	3.747630e+000	1.964575e+001	0.0	1.255810e+000	1.996053e+001	0.0	-1.255810e+000	1.996053e+001	0.0	-3.747630e+000	1.964574e+001	0.0	-6.180340e+000	1.902113e+001	0.0	-8.515590e+000	1.809654e+001	0.0	-1.071654e+001	1.688656e+001	0.0	-1.274848e+001	1.541026e+001	0.0	-1.457937e+001	1.369094e+001	0.0	-1.618034e+001	1.175570e+001	0.0	-1.752613e+001	9.635070e+000	0.0	-1.859553e+001	7.362490e+000	0.0	-1.937166e+001	4.973800e+000	0.0	-1.984229e+001	2.506660e+000	0.0	-2.000000e+001	0.000000e+000	0.0	-1.984229e+001	-2.506670e+000	0.0	-1.937166e+001	-4.973800e+000	0.0	-1.859553e+001	-7.362490e+000	0.0	-1.752613e+001	-9.635080e+000	0.0	-1.618034e+001	-1.175571e+001	0.0	-1.457937e+001	-1.369094e+001	0.0	-1.274848e+001	-1.541027e+001	0.0	-1.071653e+001	-1.688656e+001	0.0	-8.515580e+000	-1.809654e+001	0.0	-6.180340e+000	-1.902113e+001	0.0	-3.747620e+000	-1.964575e+001	0.0	-1.255810e+000	-1.996053e+001	0.0	1.255810e+000	-1.996053e+001	0.0	3.747630e+000	-1.964574e+001	0.0	6.180340e+000	-1.902113e+001	0.0	8.515590e+000	-1.809654e+001	0.0	1.071654e+001	-1.688656e+001	0.0	1.274848e+001	-1.541026e+001	0.0	1.457937e+001	-1.369094e+001	0.0	1.618034e+001	-1.175570e+001	0.0	1.752614e+001	-9.635070e+000	0.0	1.859553e+001	-7.362490e+000	0.0	1.937166e+001	-4.973790e+000	0.0	1.984229e+001	-2.506660e+000	0.0	2.000000e+001	0.000000e+000	0.0	6.075708e-002	-4.471272e-002	0.0	6.599573e-001	-4.732506e-002	0.0	4.261359e-001	7.614063e-002	0.0	6.900578e-001	5.308067e-002	0.0	3.795855e-001	-6.993437e-002	0.0	9.994587e-001	-7.395201e-004	0.0	9.985362e-001	-1.342713e-003	0.0	7.734823e-001	-3.971426e-002	0.0	6.895520e-001	-4.562508e-002	0.0	-1.588421e-003	6.840590e-003	0.0	7.464321e-001	-4.199194e-002	0.0	5.837661e-001	6.441125e-002	0.0	9.927688e-001	-3.700108e-003	0.0	9.898759e-001	-4.661303e-003	0.0	5.993211e-001	6.301430e-002	0.0	7.184196e-001	-4.390810e-002	0.0	-1.638720e-003	8.313041e-004	0.0	9.864962e-001	-5.747718e-003	0.0	9.826368e-001	-6.952891e-003	0.0	-1.482690e-003	-6.382958e-003	0.0	6.449263e-001	-4.822604e-002	0.0	8.241860e-001	-3.396719e-002	0.0	7.994325e-001	-3.703059e-002	0.0	3.489625e-001	8.007359e-002	0.0	8.476046e-001	-3.070129e-002	0.0	2.474464e-001	8.076630e-002	0.0	8.696304e-001	-2.743137e-002	0.0	9.652548e-003	2.392714e-002	0.0	8.901679e-001	-2.436133e-002	0.0	7.702117e-002	-4.940307e-002	0.0	9.091579e-001	-2.160285e-002	0.0	-1.999687e-003	-3.160220e-003	0.0	9.422001e-001	-1.666690e-002	0.0	9.265292e-001	-1.910801e-002	0.0	1.796956e-002	-2.669309e-002	0.0	4.262226e-001	-6.654712e-002	0.0	8.588002e-001	-2.905058e-002	0.0	9.561036e-001	-1.403428e-002	0.0	9.782889e-001	-8.288635e-003	0.0	9.681557e-001	-1.115380e-002	0.0	1.582630e-001	-6.492633e-002	0.0	8.998625e-001	-2.294213e-002	0.0	7.600886e-001	-4.090393e-002	0.0	9.971079e-001	-2.092654e-003	0.0	5.990655e-001	-5.132065e-002	0.0	4.419190e-001	-6.522294e-002	0.0	5.366032e-001	-5.650879e-002	0.0	4.734583e-001	-6.238691e-002	0.0	5.050571e-001	-5.943014e-002	0.0	4.892500e-001	-6.091369e-002	0.0	1.249291e-001	-5.982115e-002	0.0	2.787828e-002	-3.208054e-002	0.0	3.950435e-001	-6.891918e-002	0.0	4.624752e-002	-3.980
[...]
POINT_DATA 5233

SCALARS Density float 1
LOOKUP_TABLE default
1.187456e+000	1.166526e+000	1.155410e+000	1.147140e+000	1.140334e+000	1.133477e+000	1.124485e+000	1.112064e+000	1.095300e+000	1.074545e+000	1.051308e+000	1.028898e+000	1.012138e+000	1.004160e+000	1.004747e+000	1.011031e+000	1.019481e+000	1.027122e+000	1.032112e+000	1.033776e+000	1.032123e+000	1.027511e+000	1.020413e+000	1.011399e+000	1.001048e+000	9.899944e-001	9.789634e-001	9.688209e-001	9.604333e-001	9.545559e-001	9.517112e-001	9.519759e-001	9.550640e-001	9.603442e-001	9.670836e-001	9.745412e-001	9.820393e-001	9.890656e-001	9.951531e-001	1.000093e+000	1.003657e+000	1.005808e+000	1.006467e+000	1.005697e+000	1.003512e+000	1.000035e+000	9.953268e-001	9.895420e-001	9.829812e-001	9.760383e-001	9.681832e-001	9.586328e-001	9.518938e-001	9.569130e-001	9.609408e-001	9.129445e-001	7.767011e-001	6.885581e-001	6.825326e-001	6.960582e-001	7.065945e-001	7.143407e-001	7.223499e-001	7.315184e-001	7.413698e-001	7.515836e-001	7.621181e-001	7.728869e-001	7.837218e-001	7.945249e-001	8.052877e-001	8.161634e-001	8.272797e-001	8.386351e-001	8.500662e-001	8.614036e-001	8.726547e-001	8.839650e-001	8.953599e-001	9.068444e-001	9.185013e-001	9.303523e-001	9.424957e-001	9.550071e-001	9.680219e-001	9.817483e-001	9.963687e-001	1.012190e+000	1.029666e+000	1.049204e+000	1.071541e+000	1.097587e+000	1.128091e+000	1.164064e+000	1.205566e+000	1.250912e+000	1.294389e+000	1.336465e+000	1.351694e+000	1.349445e+000	1.348981e+000	1.329144e+000	1.283476e+000	1.237791e+000	1.187939e+000	1.139309e+000	1.093882e+000	1.052469e+000	1.015071e+000	9.817218e-001	9.519857e-001	9.252776e-001	9.012901e-001	8.795058e-001	8.595739e-001	8.412393e-001	8.241207e-001	8.078968e-001	7.924802e-001	7.777868e-001	7.638383e-001	7.505676e-001	7.377173e-001	7.249479e-001	7.121867e-001	6.997130e-001	6.879909e-001	6.769550e-001	6.662930e-001	6.557079e-001	6.453667e-001	6.355491e-001	6.265563e-001	6.184102e-001	6.111170e-001	6.045778e-001	5.987241e-001	5.935801e-001	5.890362e-001	5.851358e-001	5.818642e-001	5.794027e-001	5.779433e-001	5.773753e-001	5.773916e-001	5.777731e-001	5.784368e-001	5.794317e-001	5.806906e-001	5.822792e-001	5.839701e-001	5.857303e-001	5.872373e-001	5.882100e-001	5.882127e-001	5.873272e-001	5.861291e-001	5.852468e-001	5.800974e-001	5.723375e-001	5.807314e-001	7.045265e-001	9.315400e-001	1.004002e+000	9.985197e-001	9.977964e-001	1.005692e+000	1.013003e+000	1.019736e+000	1.026431e+000	1.032376e+000	1.037116e+000	1.040347e+000	1.041838e+000	1.041486e+000	1.039232e+000	1.035112e+000	1.029164e+000	1.021438e+000	1.011872e+000	1.000479e+000	9.875722e-001	9.744407e-001	9.635633e-001	9.589319e-001	9.648041e-001	9.831985e-001	1.011240e+000	1.042215e+000	1.070599e+000	1.093877e+000	1.111070e+000	1.122475e+000	1.129565e+000	1.133951e+000	1.138115e+000	1.143311e+000	1.151979e+000	1.162076e+000	1.159152e+000	9.980574e-001	9.994799e-001	9.996465e-001	9.994515e-001	9.993309e-001	9.991757e-001	9.989943e-001	9.987714e-001	9.985308e-001	9.983777e-001	9.983121e-001	9.984406e-001	9.987081e-001	9.991808e-001	9.995690e-001	9.998804e-001	1.000056e+000	1.000166e+000	1.000236e+000	1.000269e+000	1.000288e+000	1.000297e+000	1.000304e+000	1.000315e+000	1.000324e+000	1.000339e+000	1.000365e+000	1.000399e+000	1.000446e+000	1.000517e+000	1.000596e+000	1.000727e+000	1.000854e+000	1.001072e+000	1.001276e+000	1.001530e+000	1.001798e+000	1.001907e+000	1.001937e+000	1.001785e+000	1.001611e+000	1.001363e+000	1.001134e+000	1.000911e+000	1.000716e+000	1.000475e+000	1.000276e+000	1.000327e+000	9.989629e-001	9.971117e-001	9.613135e-001	9.970376e-001	5.789090e-001	8.518373e-001	7.085841e-001	1.168126e+000	1.158800e+000	9.578969e-001	9.865426e-001	1.310557e+000	9.625834e-001	5.904770e-001	1.132675e+000	1.124318e+000	5.900585e-001	9.737892e-001	1.346486e+000	1.114034e+000	1.101003e+000	1.320029e+000	1.000755e+000	9.784378e-001	9.634604e-001	5.888927e-001	9.977758e-001	6.330545e-001	1.015788e+000	1.103459e+000	1.028021e+000	9.357095e-001	1.031199e+000	1.343537e+000	1.014565e+000	1.024546e+000	1.083788e+000	9.672648e-001	1.007253e+000	1.018452e+000	1.084952e+000	1.047221e+000	8.426991e-001	1.030890e+000	9.591151e-001	1.148386e+000	1.004265e+000	9.546265e-001	9.915107e-001	9.645928e-001	9.795550e-001	9.729160e-001	8.769386e-001	1.040025e+000	8.573150e-001	9.893545e-001	9.649057e-001	7.196813e-001	6.970889e-001	1.021577e+000	7.364771e-001	1.019089e+000	8.541267e-001	8.098185e-001	9.235118e-001	8.998426e-001	1.000203e+000	8.314753e-001	1.004410e+000	1.022866e+000	1.060576e+000	1.140353e+000	1.174305e+000	1.028215e+000	1.028950e+000	1.013557e+000	1.066489e+000	1.274955e+000	9.879395e-001	7.668540e-001	9.964103e-001	9.676895e-001	9.593153e-001	8.883204e-001	7.883179e-001	1.002864e+000	9.922527e-001	9.749462e-001	1.211674e+000	1.110174e+000	6.866440e-001	8.205479e-001	1.198732e+000	7.775198e-001	9.115784e-001	7.274241e-001	7.564154e-001	9.556462e-001	9.802657e-001	1.339589e+000	1.288740e+000	5.869033e-001	1.347186e+000	9.656822e-001	8.714001e-001	9.142049e-001	7.592142e-001	5.793722e-001	1.137627e+000	5.849504e-001	5.801874e-001	1.059330e+000	1.010269e+000	1.024906e+000	5.814646e-001	5.789211e-001	5.823530e-001	9.883844e-001	1.008564e+000	8.179254e-001	1.080621e+000	9.897899e-001	9.749574e-001	7.870052e-001	8.524426e-001	6.102071e-001	6.247104e-001	6.955790e-001	5.983104e-001	5.793595e-001	5.804728e-001	7.197859e-001	7.459557e-001	5.884880e-001	6.733840e-001	6.520846e-001	5.744900e-001	5.899844e-001	1.004584e+000	1.003751e+000	1.028895e+000	1.017449e+000	1.039361e+000	1.036922e+000	1.017423e+000	1.035330e+000	9.776833e-001	9.986100e-001	1.035015e+000	1.038154e+000	1.030883e+000	1.033515e+000	1.038921e+000	1.011558e+000	1.023382e+000	1.010165e+000	9.981106e-001	5.807755e-001	6.063967e-001	5.887261e-001	5.900179e-001	6.625878e-001	6.422338e-001	7.073564e-001	6.843905e-001	8.918661e-001	7.328093e-001	1.064217e+000	9.387175e-001	7.990935e-001	1.189112e+000	1.030145e+000	9.700225e-001	7.110616e-001	9.857666e-001	1.233623e+000	9.954055e-001	1.145329e+000	8.020454e-001	8.346724e-001	6.170939e-001	7.727899e-001	1.097746e+000	1.110538e+000	6.039582e-001	1.119690e+000	1.126342e+000	5.933450e-001	5.851822e-001	9.795902e-001	1.171187e+000	1.145340e+000	1.153336e+000	1.003212e+000	1.004808e+000	1.131909e+000	5.830531e-001	1.251146e+000	1.140347e+000	9.482725e-001	8.655706e-001	7.462630e-001	8.459602e-001	1.289561e+000	1.319933e+000	7.524762e-001	9.848600e-001	1.029358e+000	1.173086e+000	5.914824e-001	9.898799e-001	9.651088e-001	1.114731e+000	7.258033e-001	1.004243e+000	9.874184e-001	9.288465e-001	1.300378e+000	8.046871e-001	1.115003e+000	1.033606e+000	8.589938e-001	9.794691e-001	9.979391e-001	9.553284e-001	9.412644e-001	7.897805e-001	1.027817e+000	9.678546e-001	1.142378e+000	1.035704e+000	5.865955e-001	1.036943e+000	7.832028e-001	7.133484e-001	7.168848e-001	1.031701e+000	1.109102e+000	5.992093e-001	5.845815e-001	9.987402e-001	1.027297e+000	1.117233e+000	1.012762e+000	1.085227e+000	6.509778e-001	6.048773e-001	6.608556e-001	7.976185e-001	9.943744e-001	8.153967e-001	1.104737e+000	7.419522e-001	9.038676e-001	1.050461e+000	1.123906e+000	1.021640e+000	8.477211e-001	1.185458e+000	1.136526e+000	1.130009e+000	1.181016e+000	1.257348e+000	1.205518e+000	1.339583e+000	1.341142e+000	1.089929e+000	1.196426e+000	9.673408e-001	1.148554e+000	1.132076e+000	5.827557e-001	9.927207e-001	1.103868e+000	1.018814e+000	5.925779e-001	1.123918e+000	1.326177e+000	9.583768e-001	5.846353e-001	9.958588e-001	6.251430e-001	1.012046e+000	1.024167e+000	9.540523e-001	1.029535e+000	1.027537e+000	1.022078e+000	1.047191e+000	1.025496e+000	1.045997e+000	1.090983e+000	8.819053e-001	9.663339e-001	9.646842e-001	1.140074e+000	9.620215e-001	9.699409e-001	9.763293e-001	1.067562e+000	9.311521e-001	9.680699e-001	7.153474e-001	1.011744e+000	1.024804e+000	1.022415e+000	8.704546e-001	9.167407e-001	9.966973e-001	1.002461e+000	1.060921e+000	1.076422e+000	9.742769e-001	9.697259e-001	9.049609e-001	8.933685e-001	9.997293e-001	1.001629e+000	9.960628e-001	9.813292e-001	1.142600e+000	6.972855e-001	7.037355e-001	8.367953e-001	8.260905e-001	7.939452e-001	7.833053e-001	7.428802e-001	7.342247e-001	7.727943e-001	1.337899e+000	1.239510e+000	9.259858e-001	1.098652e+000	5.863781e-001	5.829349e-001	5.818535e-001	5.811355e-001	1.069022e+000	1.030997e+000	9.999672e-001	5.810380e-001	5.815413e-001	5.872336e-001	1.007507e+000	9.910265e-001	8.639821e-001	8.832652e-001	6.417716e-001	6.330866e-001	7.291234e-001	7.555444e-001	7.692872e-001	1.025799e+000	1.004143e+000	9.990629e-001	1.020774e+000	1.035896e+000	1.014963e+000	1.034820e+000	1.036550e+000	1.033623e+000	1.030224e+000	1.015609e+000	1.010676e+000	1.007377e+000	9.829384e-001	5.729919e-001	5.910867e-001	5.900977e-001	5.883740e-001	5.923584e-001	5.933145e-001	6.711461e-001	6.821200e-001	6.934419e-001	7.051354e-001	1.069161e+000	9.500334e-001	9.763782e-001	9.727826e-001	9.795198e-001	9.822068e-001	9.877740e-001	1.220242e+000	1.004932e+000	8.128122e-001	8.289064e-001	6.109776e-001	6.177486e-001	5.904116e-001	5.943842e-001	9.897852e-001	9.934616e-001	1.002058e+000	1.000591e+000	1.028660e+000	1.272335e+000	7.625352e-001	1.305907e+000	8.705380e-001	7.595879e-001	9.728871e-001	9.893249e-001	1.029192e+000	1.108360e+000	1.099784e+000	1.031256e+000	1.208502e+000	1.116008e+000	1.144045e+000	1.154020e+000	1.139478e+000	1.177710e+000	1.095026e+000	1.319306e+000	9.349397e-001	1.028445e+000	1.115844e+000	5.921527e-001	1.158932e+000	1.199834e+000	9.839347e-001	1.257515e+000	9.797329e-001	1.118322e+000	1.015937e+000	1.171145e+000	7.317365e-001	1.009613e+000	9.882219e-001	1.124483e+000	1.143950e+000	1.076647e+000	5.867278e-001	1.007741e+000	5.786893e-001	1.121587e+000	5.853896e-001	6.423115e-001	6.118543e-001	7.402817e-001	8.763050e-001	1.149913e+000	1.280007e+000	1.268048e+000	1.073716e+000	1.298594e+000	1.046944e+000	9.474257e-001	1.334963e+000	8.646807e-001	9.598375e-001	1.073532e+000	1.139913e+000	1.034498e+000	1.023616e+000	6.373354e-001	1.089369e+000	1.017659e+000	1.024775e+000	1.028899e+000	6.186356e-001	6.337678e-001	6.706862e-001	8.095833e-001	9.954698e-001	9.920629e-001	8.217550e-001	1.106349e+000	7.526454e-001	1.062264e+000	1.127950e+000	1.174285e+000	1.241311e+000	1.228979e+000	1.321199e+000	1.053529e+000	1.172349e+000	1.163883e+000	1.058718e+000	1.106647e+000	5.942493e-001	9.569950e-001	5.891915e-001	9.952282e-001	1.002569e+000	1.021261e+000	1.025337e+000	9.737621e-001	9.603645e-001	1.027969e+000	1.029228e+000	1.031336e+000	1.037524e+000	1.096184e+000	9.711240e-001	9.711214e-001	1.131770e+000	9.672390e-001	9.735663e-001	9.585116e-001	9.643117e-001	1.035341e+000	1.027779e+000	1.028344e+000	8.876975e-001	8.761113e-001	9.932889e-001	9.965635e-001	1.071570e+000	1.084264e+000	9.758759e-001	9.728798e-001	9.227803e-001	9.107732e-001	8.991391e-001	9.987359e-001	1.000145e+000	1.018675e+000	1.002868e+000	9.878567e-001	7.189916e-001	7.074891e-001	7.421085e-001	8.537770e-001	8.431066e-001	8.324320e-001	8.110790e-001	8.004972e-001	7.500568e-001	7.416697e-001	7.899783e-001	9.381991e-001	5.841003e-001	5.836590e-001	1.046680e+000	5.837890e-001	5.847362e-001	5.864792e-001	5.925380e-001	1.009038e+000	8.956296e-001	9.163200e-001	6.511796e-001	6.608336e-001	7.657898e-001	7.802722e-001	7.949868e-001	1.005498e+000	1.014442e+000	1.019925e+000	1.031965e+000	1.034018e+000	1.034871e+000	1.033198e+000	1.030753e+000	1.027556e+000	1.019520e+000	1.016060e+000	1.011776e+000	1.006977e+000	1.010130e+000	9.036837e-001	5.858824e-001	5.903017e-001	5.886267e-001	5.929122e-001	5.962372e-001	5.954094e-001	6.811284e-001	6.918122e-001	7.034196e-001	7.154897e-001	7.280197e-001	9.613839e-001	9.866893e-001	9.765155e-001	9.817628e-001	9.880999e-001	9.791128e-001	9.843544e-001	1.014182e+000	1.043041e+000	8.247725e-001	8.409888e-001	8.581338e-001	6.259669e-001	5.966312e-001	6.010003e-001	6.060056e-001	1.002525e+000	1.001789e+000	1.004398e+000	1.000323e+000	9.997222e-001	9.979395e-001	7.796894e-001	7.695155e-001	1.285724e+000	9.413050e-001	1.120238e+000	1.081639e+000	9.900069e-001	1.299572e+000	1.146407e+000	1.030833e+000	1.031646e+000	1.058482e+000	1.107644e+000	5.882555e-001	1.261863e+000	1.106107e+000	1.191692e+000	1.033565e+000	1.114295e+000	1.249073e+000	5.890951e-001	1.224945e+000	1.155781e+000	1.175803e+000	9.799864e-001	8.718577e-001	1.098337e+000	9.283835e-001	9.538914e-001	9.580300e-001	7.684296e-001	1.091707e+000	5.926466e-001	1.023453e+000	1.016170e+000	1.021163e+000	7.657760e-001	6.632590e-001	1.108664e+000	9.075680e-001	1.014199e+000	1.133443e+000	1.100399e+000	1.131476e+000	1.068591e+000	1.119569e+000	9.871693e-001	1.217123e+000	9.841506e-001	9.806000e-001	1.142806e+000	1.116715e+000	1.167066e+000	1.032207e+000	5.882863e-001	6.363278e-001	1.276995e+000	1.136065e+000	6.132424e-001	1.026570e+000	6.288442e-001	6.450468e-001	6.535568e-001	9.934046e-001	9.905174e-001	1.070192e+000	1.165908e+000	1.196151e+000	1.241735e+000	1.302058e+000	1.077749e+000	1.058136e+000	1.099732e+000	5.948450e-001	1.002196e+000	1.008353e+000	1.019302e+000	1.023428e+000	9.800720e-001	9.667345e-001	1.026581e+000	1.028774e+000	1.030053e+000	1.041347e+000	1.048830e+000	9.760826e-001	9.782238e-001	1.124335e+000	9.639394e-001	9.707429e-001	9.638057e-001	9.599833e-001	1.033106e+000	1.036122e+000	8.943951e-001	8.824893e-001	9.929367e-001	1.079337e+000	1.089909e+000	9.786135e-001	9.768905e-001	9.291048e-001	9.173134e-001	9.059886e-001	9.959988e-001	9.972183e-001	1.041443e+000	1.024852e+000	1.008824e+000	9.939255e-001	7.393819e-001	7.287031e-001	7.391631e-001	8.157566e-001	8.613750e-001	8.507931e-001	8.401619e-001	8.295251e-001	8.190905e-001	7.503930e-001	7.591006e-001	8.086365e-001	5.879258e-001	1.057966e+000	1.045404e+000	5.886918e-001	5.899376e-001	5.924499e-001	5.954458e-001	5.998363e-001	9.281278e-001	9.500309e-001	6.726412e-001	6.832363e-001	7.784051e-001	7.919517e-001	8.071157e-001	8.225838e-001	1.016028e+000	1.019614e+000	1.023314e+000	1.029344e+000	1.031222e+000	1.032414e+000	1.032034e+000	1.030436e+000	1.027497e+000	1.025255e+000	1.017556e+000	1.012767e+000	1.007951e+000	1.006996e+000	1.014537e+000	9.965404e-001	7.696709e-001	5.898872e-001	5.908697e-001	5.914741e-001	5.958588e-001	5.972858e-001	5.971874e-001	6.932879e-001	7.043152e-001	7.149835e-001	7.270501e-001	7.393845e-001	7.524901e-001	9.724241e-001	9.957661e-001	9.847932e-001	9.901596e-001	9.959856e-001	9.763429e-001	9.810229e-001	9.853182e-001	1.021783e+000	1.049050e+000	1.076589e+000	8.378602e-001	8.536090e-001	8.707360e-001	8.887018e-001	6.043785e-001	6.100464e-001	6.155326e-001	6.215788e-001	1.013066e+000	1.012251e+000	1.011452e+000	9.984910e-001	9.980338e-001	9.975021e-001	9.955932e-001	7.984549e-001	7.882112e-001	7.782957e-001	1.140816e+000	1.115912e+000	1.067060e+000	1.152067e+000	1.162561e+000	9.838270e-001	9.481835e-001	1.184137e+000	1.075950e+000	1.227443e+000	1.080728e+000	8.810642e-001	7.936242e-001	1.132435e+000	1.210405e+000	1.275624e+000	1.315594e+000	1.315530e+000	1.307477e+000	1.245539e+000	1.126932e+000	6.488935e-001	1.076086e+000	1.110162e+000	1.036587e+000	9.854873e-001	9.472760e-001	1.107087e+000	1.018962e+000	1.023576e+000	5.929249e-001	5.923137e-001	5.998793e-001	1.014222e+000	5.930371e-001	9.873264e-001	6.385228e-001	1.100650e+000	9.606602e-001	1.144558e+000	1.085083e+000	1.309188e+000	1.169981e+000	1.160489e+000	1.033834e+000	1.063341e+000	1.265412e+000	1.105462e+000	1.205991e+000	1.036666e+000	1.232184e+000	1.154470e+000	1.163073e+000	1.120149e+000	7.672858e-001	7.789275e-001	1.093253e+000	5.953425e-001	1.028993e+000	1.102322e+000	9.883545e-001	1.255743e+000	6.553880e-001	6.670310e-001	6.742733e-001	9.927677e-001	1.158692e+000	1.184991e+000	1.280183e+000	1.100665e+000	1.008292e+000	1.012918e+000	1.017853e+000	1.022128e+000	9.733553e-001	9.868885e-001	1.025628e+000	1.028370e+000	1.030435e+000	1.032609e+000	1.050841e+000	1.058476e+000	9.816093e-001	1.117230e+000	9.608295e-001	9.661610e-001	9.626145e-001	9.595649e-001	1.039995e+000	1.044534e+000	9.010798e-001	8.889769e-001	1.085236e+000	1.094068e+000	9.817220e-001	9.357040e-001	9.234845e-001	9.147757e-001	9.932804e-001	1.046794e+000	1.030524e+000	1.014770e+000	1.000733e+000	7.611359e-001	7.495095e-001	7.550044e-001	7.832008e-001	8.708036e-001	8.688568e-001	8.602355e-001	8.475252e-001	8.391067e-001	8.267744e-001	1.066060e+000	1.055935e+000	1.045925e+000	5.936202e-001	5.967446e-001	5.984260e-001	6.035118e-001	6.065386e-001	9.399624e-001	9.614543e-001	6.868885e-001	6.948061e-001	8.030323e-001	8.193607e-001	8.358719e-001	1.021306e+000	1.022955e+000	1.025375e+000	1.027352e+000	1.028682e+000	1.030062e+000	1.029736e+000	1.029146e+000	1.026780e+000	1.022756e+000	1.012930e+000	1.027560e+000	7.975403e-001	5.917180e-001	5.991050e-001	7.081987e-001	7.163121e-001	7.301165e-001	7.384598e-001	7.530845e-001	7.659124e-001	7.795034e-001	9.832767e-001	1.005089e+000	9.921334e-001	9.968122e-001	1.002492e+000	9.725219e-001	9.795121e-001	1.028420e+000	1.054306e+000	1.079480e+000	8.518814e-001	8.676016e-001	8.839702e-001	9.024660e-001	9.210276e-001	6.134648e-001	6.178175e-001	6.261447e-001	6.331950e-001	1.020252e+000	1.019394e+000	9.959446e-001	9.956159e-001	8.185481e-001	8.063394e-001	7.985046e-001	7.865511e-001	1.152359e+000	1.139094e+000	1.176239e+000	1.285021e+000	1.168909e+000	1.081560e+000	1.094472e+000	1.236702e+000	1.047033e+000	1.129808e+000	1.097055e+000	1.261353e+000	1.083189e+000	1.157056e+000	6.552459e-001	1.151881e+000	1.151570e+000	1.216270e+000	1.137901e+000	1.073775e+000	9.812184e-001	1.087440e+000	7.830635e-001	1.042380e+000	1.037057e+000	9.938567e-001	9.547944e-001	8.832972e-001	1.229690e+000	9.553070e-001	9.810465e-001	9.682550e-001	8.248328e-001	1.071646e+000	1.023741e+000	1.254992e+000	1.128127e+000	1.066201e+000	1.147564e+000	1.079655e+000	1.312381e+000	1.246442e+000	1.104352e+000	9.856830e-001	5.980196e-001	6.014273e-001	1.100775e+000	1.156502e+000	1.118039e+000	1.287890e+000	1.163883e+000	1.067324e+000	1.213421e+000	1.195179e+000	5.967284e-001	1.101056e+000	1.040030e+000	1.034054e+000	5.954996e-001	6.731259e-001	6.931612e-001	9.876388e-001	1.174496e+000	1.196483e+000	1.119941e+000	1.014823e+000	1.022724e+000	9.934524e-001	1.029247e+000	1.033624e+000	1.058991e+000	1.111229e+000	9.622194e-001	1.047193e+000	1.052524e+000	9.025561e-001	1.089336e+000	9.856422e-001	9.879948e-001	9.374105e-001	9.213938e-001	9.879648e-001	1.051539e+000	1.034852e+000	1.019674e+000	1.009147e+000	7.730198e-001	8.057522e-001	9.016235e-001	8.623556e-001	8.415700e-001	1.063379e+000	1.055130e+000	6.084125e-001	6.184098e-001	9.713734e-001	7.145956e-001	8.484044e-001	1.022218e+000	1.024615e+000	1.026399e+000	1.027402e+000	1.026410e+000	1.024878e+000	1.014972e+000	1.009362e+000	1.027277e+000	9.589534e-001	6.725018e-001	6.017500e-001	5.952528e-001	5.973779e-001	7.370240e-001	7.595700e-001	7.808992e-001	7.909930e-001	8.074546e-001	9.934994e-001	1.014084e+000	9.933156e-001	1.000297e+000	1.008183e+000	9.668899e-001	9.737535e-001	1.034759e+000	1.058102e+000	1.081773e+000	1.104533e+000	8.661940e-001	8.820529e-001	8.978214e-001	9.153362e-001	9.363910e-001	9.505802e-001	6.307384e-001	6.441119e-001	1.028436e+000	1.026010e+000	9.923172e-001	9.930855e-001	9.906680e-001	8.214110e-001	8.017319e-001	1.106132e+000	1.153312e+000	1.148573e+000	1.124049e+000	1.032865e+000	1.095272e+000	1.149472e+000	1.124989e+000	1.184900e+000	1.134868e+000	1.136105e+000	1.116980e+000	1.164879e+000	1.235631e+000	1.243286e+000	1.061607e+000	9.888222e-001	6.664670e-001	1.113473e+000	1.033260e+000	1.101113e+000	9.722205e-001	1.145001e+000	1.168503e+000	9.307930e-001	1.048594e+000	9.920741e-001	9.827728e-001	1.078794e+000	1.085568e+000	1.085054e+000	1.071092e+000	1.147403e+000	1.082308e+000	1.088704e+000	1.048376e+000	7.020817e-001	5.986933e-001	9.898833e-001	9.993954e-001	1.134953e+000	1.139257e+000	1.292745e+000	1.072032e+000	1.054703e+000	1.164272e+000	1.092381e+000	1.219317e+000	1.151404e+000	9.756429e-001	1.229256e+000	9.898293e-001	9.746242e-001	1.075558e+000	1.265507e+000	1.065546e+000	1.098988e+000	9.886921e-001	1.267185e+000	1.163746e+000	1.014107e+000	1.215040e+000	1.200473e+000	6.