# vtk DataFile Version 3.0
vtk output
ASCII
DATASET UNSTRUCTURED_GRID
POINTS 5233 float
9.997500e-001	-3.633392e-005	0.0	9.990000e-001	-1.455664e-004	0.0	9.977600e-001	-3.285408e-004	0.0	9.960200e-001	-5.955238e-004	0.0	9.937800e-001	-9.674058e-004	0.0	9.910500e-001	-1.478590e-003	0.0	9.878400e-001	-2.175063e-003	0.0	9.841300e-001	-3.110720e-003	0.0	9.799500e-001	-4.310209e-003	0.0	9.752800e-001	-5.775710e-003	0.0	9.701500e-001	-7.450295e-003	0.0	9.645400e-001	-9.256590e-003	0.0	9.584700e-001	-1.109086e-002	0.0	9.519400e-001	-1.287020e-002	0.0	9.449600e-001	-1.454332e-002	0.0	9.375400e-001	-1.609832e-002	0.0	9.296900e-001	-1.755234e-002	0.0	9.214000e-001	-1.893768e-002	0.0	9.127000e-001	-2.027695e-002	0.0	9.035800e-001	-2.158892e-002	0.0	8.940600e-001	-2.287710e-002	0.0	8.841500e-001	-2.413986e-002	0.0	8.738500e-001	-2.537464e-002	0.0	8.631800e-001	-2.657730e-002	0.0	8.521600e-001	-2.774574e-002	0.0	8.407700e-001	-2.888304e-002	0.0	8.290500e-001	-2.998602e-002	0.0	8.170100e-001	-3.105386e-002	0.0	8.046400e-001	-3.208634e-002	0.0	7.919700e-001	-3.307931e-002	0.0	7.790100e-001	-3.403091e-002	0.0	7.657800e-001	-3.494002e-002	0.0	7.522800e-001	-3.580904e-002	0.0	7.385200e-001	-3.664208e-002	0.0	7.245300e-001	-3.744448e-002	0.0	7.103200e-001	-3.822474e-002	0.0	6.958900e-001	-3.899304e-002	0.0	6.812700e-001	-3.975832e-002	0.0	6.664700e-001	-4.053022e-002	0.0	6.515000e-001	-4.131726e-002	0.0	6.363800e-001	-4.212582e-002	0.0	6.211300e-001	-4.296026e-002	0.0	6.057600e-001	-4.382328e-002	0.0	5.902800e-001	-4.471542e-002	0.0	5.747100e-001	-4.563454e-002	0.0	5.590600e-001	-4.657717e-002	0.0	5.433600e-001	-4.753696e-002	0.0	5.276100e-001	-4.850805e-002	0.0	5.118400e-001	-4.948165e-002	0.0	4.960500e-001	-5.045005e-002	0.0	4.802700e-001	-5.140323e-002	0.0	4.645100e-001	-5.233214e-002	0.0	4.487800e-001	-5.322765e-002	0.0	4.331100e-001	-5.407967e-002	0.0	4.175000e-001	-5.488003e-002	0.0	4.019700e-001	-5.561986e-002	0.0	3.865400e-001	-5.629077e-002	0.0	3.712300e-001	-5.688501e-002	0.0	3.560400e-001	-5.739612e-002	0.0	3.409900e-001	-5.781738e-002	0.0	3.261100e-001	-5.814261e-002	0.0	3.114000e-001	-5.836696e-002	0.0	2.968700e-001	-5.848581e-002	0.0	2.825500e-001	-5.849504e-002	0.0	2.684500e-001	-5.839146e-002	0.0	2.545700e-001	-5.817218e-002	0.0	2.409400e-001	-5.783537e-002	0.0	2.275700e-001	-5.737970e-002	0.0	2.144700e-001	-5.680439e-002	0.0	2.016600e-001	-5.610987e-002	0.0	1.891400e-001	-5.529619e-002	0.0	1.769300e-001	-5.436521e-002	0.0	1.650400e-001	-5.331897e-002	0.0	1.534900e-001	-5.216118e-002	0.0	1.422900e-001	-5.089553e-002	0.0	1.314400e-001	-4.952506e-002	0.0	1.209500e-001	-4.805429e-002	0.0	1.108500e-001	-4.649157e-002	0.0	1.011300e-001	-4.483987e-002	0.0	9.181000e-002	-4.310721e-002	0.0	8.290000e-002	-4.130053e-002	0.0	7.440000e-002	-3.942483e-002	0.0	6.633000e-002	-3.748955e-002	0.0	5.869000e-002	-3.549965e-002	0.0	5.149000e-002	-3.346221e-002	0.0	4.474000e-002	-3.138423e-002	0.0	3.844000e-002	-2.926909e-002	0.0	3.260000e-002	-2.712255e-002	0.0	2.723000e-002	-2.495007e-002	0.0	2.232000e-002	-2.274746e-002	0.0	1.790000e-002	-2.052737e-002	0.0	1.395000e-002	-1.827725e-002	0.0	1.049000e-002	-1.600351e-002	0.0	7.520000e-003	-1.370073e-002	0.0	5.040000e-003	-1.136052e-002	0.0	3.050000e-003	-8.970117e-003	0.0	1.560000e-003	-6.528200e-003	0.0	5.600000e-004	-3.994974e-003	0.0	6.000000e-005	-1.344408e-003	0.0	0.000000e+000	0.000000e+000	0.0	6.000000e-005	1.363724e-003	0.0	5.600000e-004	4.068782e-003	0.0	1.560000e-003	6.653762e-003	0.0	3.050000e-003	9.137770e-003	0.0	5.040000e-003	1.155787e-002	0.0	7.520000e-003	1.391320e-002	0.0	1.049000e-002	1.621505e-002	0.0	1.395000e-002	1.847055e-002	0.0	1.790000e-002	2.068407e-002	0.0	2.232000e-002	2.284873e-002	0.0	2.723000e-002	2.497643e-002	0.0	3.260000e-002	2.705499e-002	0.0	3.844000e-002	2.908898e-002	0.0	4.474000e-002	3.107416e-002	0.0	5.149000e-002	3.300660e-002	0.0	5.869000e-002	3.488515e-002	0.0	6.633000e-002	3.670586e-002	0.0	7.440000e-002	3.846527e-002	0.0	8.290000e-002	4.016243e-002	0.0	9.181000e-002	4.179276e-002	0.0	1.011300e-001	4.335619e-002	0.0	1.108500e-001	4.485116e-002	0.0	1.209500e-001	4.627537e-002	0.0	1.314400e-001	4.763121e-002	0.0	1.422900e-001	4.891608e-002	0.0	1.534900e-001	5.013062e-002	0.0	1.650400e-001	5.127656e-002	0.0	1.769300e-001	5.235450e-002	0.0	1.891400e-001	5.336418e-002	0.0	2.016600e-001	5.430615e-002	0.0	2.144700e-001	5.517996e-002	0.0	2.275700e-001	5.598610e-002	0.0	2.409400e-001	5.672318e-002	0.0	2.545700e-001	5.738982e-002	0.0	2.684500e-001	5.798393e-002	0.0	2.825500e-001	5.850199e-002	0.0	2.968700e-001	5.894102e-002	0.0	3.114000e-001	5.929689e-002	0.0	3.261100e-001	5.956454e-002	0.0	3.409900e-001	5.973910e-002	0.0	3.560400e-001	5.981537e-002	0.0	3.712300e-001	5.978787e-002	0.0	3.865400e-001	5.965163e-002	0.0	4.019700e-001	5.940187e-002	0.0	4.175000e-001	5.903459e-002	0.0	4.331100e-001	5.854690e-002	0.0	4.487800e-001	5.793726e-002	0.0	4.645100e-001	5.720469e-002	0.0	4.802700e-001	5.635118e-002	0.0	4.960500e-001	5.537965e-002	0.0	5.118400e-001	5.429487e-002	0.0	5.276100e-001	5.310508e-002	0.0	5.433600e-001	5.181845e-002	0.0	5.590600e-001	5.044753e-002	0.0	5.747100e-001	4.900423e-002	0.0	5.902800e-001	4.750486e-002	0.0	6.057600e-001	4.596528e-002	0.0	6.211300e-001	4.440328e-002	0.0	6.363800e-001	4.283615e-002	0.0	6.515000e-001	4.128107e-002	0.0	6.664700e-001	3.975555e-002	0.0	6.812700e-001	3.827582e-002	0.0	6.958900e-001	3.685517e-002	0.0	7.103200e-001	3.550448e-002	0.0	7.245300e-001	3.423360e-002	0.0	7.385200e-001	3.304647e-002	0.0	7.522800e-001	3.194474e-002	0.0	7.657800e-001	3.092821e-002	0.0	7.790100e-001	2.999171e-002	0.0	7.919700e-001	2.912619e-002	0.0	8.046400e-001	2.832083e-002	0.0	8.170100e-001	2.756095e-002	0.0	8.290500e-001	2.683017e-002	0.0	8.407700e-001	2.610729e-002	0.0	8.521600e-001	2.537092e-002	0.0	8.631800e-001	2.460207e-002	0.0	8.738500e-001	2.378028e-002	0.0	8.841500e-001	2.289253e-002	0.0	8.940600e-001	2.193234e-002	0.0	9.035800e-001	2.089692e-002	0.0	9.127000e-001	1.978668e-002	0.0	9.214000e-001	1.860068e-002	0.0	9.296900e-001	1.732621e-002	0.0	9.375400e-001	1.594812e-002	0.0	9.449600e-001	1.444277e-002	0.0	9.519400e-001	1.280106e-002	0.0	9.584700e-001	1.104169e-002	0.0	9.645400e-001	9.220885e-003	0.0	9.701500e-001	7.424599e-003	0.0	9.752800e-001	5.757961e-003	0.0	9.799500e-001	4.298809e-003	0.0	9.841300e-001	3.104067e-003	0.0	9.878400e-001	2.171633e-003	0.0	9.910500e-001	1.477066e-003	0.0	9.937800e-001	9.668502e-004	0.0	9.960200e-001	5.953692e-004	0.0	9.977600e-001	3.285121e-004	0.0	9.990000e-001	1.455638e-004	0.0	9.997500e-001	3.633387e-005	0.0	1.000000e+000	0.000000e+000	0.0	1.984229e+001	2.506660e+000	0.0	1.937166e+001	4.973800e+000	0.0	1.859553e+001	7.362490e+000	0.0	1.752613e+001	9.635070e+000	0.0	1.618034e+001	1.175571e+001	0.0	1.457937e+001	1.369094e+001	0.0	1.274848e+001	1.541027e+001	0.0	1.071654e+001	1.688656e+001	0.0	8.515590e+000	1.809654e+001	0.0	6.180340e+000	1.902113e+001	0.0	3.747630e+000	1.964575e+001	0.0	1.255810e+000	1.996053e+001	0.0	-1.255810e+000	1.996053e+001	0.0	-3.747630e+000	1.964574e+001	0.0	-6.180340e+000	1.902113e+001	0.0	-8.515590e+000	1.809654e+001	0.0	-1.071654e+001	1.688656e+001	0.0	-1.274848e+001	1.541026e+001	0.0	-1.457937e+001	1.369094e+001	0.0	-1.618034e+001	1.175570e+001	0.0	-1.752613e+001	9.635070e+000	0.0	-1.859553e+001	7.362490e+000	0.0	-1.937166e+001	4.973800e+000	0.0	-1.984229e+001	2.506660e+000	0.0	-2.000000e+001	0.000000e+000	0.0	-1.984229e+001	-2.506670e+000	0.0	-1.937166e+001	-4.973800e+000	0.0	-1.859553e+001	-7.362490e+000	0.0	-1.752613e+001	-9.635080e+000	0.0	-1.618034e+001	-1.175571e+001	0.0	-1.457937e+001	-1.369094e+001	0.0	-1.274848e+001	-1.541027e+001	0.0	-1.071653e+001	-1.688656e+001	0.0	-8.515580e+000	-1.809654e+001	0.0	-6.180340e+000	-1.902113e+001	0.0	-3.747620e+000	-1.964575e+001	0.0	-1.255810e+000	-1.996053e+001	0.0	1.255810e+000	-1.996053e+001	0.0	3.747630e+000	-1.964574e+001	0.0	6.180340e+000	-1.902113e+001	0.0	8.515590e+000	-1.809654e+001	0.0	1.071654e+001	-1.688656e+001	0.0	1.274848e+001	-1.541026e+001	0.0	1.457937e+001	-1.369094e+001	0.0	1.618034e+001	-1.175570e+001	0.0	1.752614e+001	-9.635070e+000	0.0	1.859553e+001	-7.362490e+000	0.0	1.937166e+001	-4.973790e+000	0.0	1.984229e+001	-2.506660e+000	0.0	2.000000e+001	0.000000e+000	0.0	6.077654e-002	-4.350808e-002	0.0	6.599350e-001	-5.480193e-002	0.0	4.258037e-001	7.292267e-002	0.0	6.897882e-001	5.120570e-002	0.0	3.793075e-001	-7.063206e-002	0.0	9.994622e-001	-7.618379e-004	0.0	9.985360e-001	-1.381336e-003	0.0	7.735279e-001	-4.657481e-002	0.0	6.895641e-001	-5.289295e-002	0.0	-1.321234e-003	6.232408e-003	0.0	7.464707e-001	-4.884024e-002	0.0	5.836432e-001	6.251057e-002	0.0	9.927869e-001	-3.857694e-003	0.0	9.899136e-001	-4.926566e-003	0.0	5.991946e-001	6.094498e-002	0.0	7.184504e-001	-5.092483e-002	0.0	-1.522703e-003	7.547560e-004	0.0	9.865631e-001	-6.189350e-003	0.0	9.827407e-001	-7.658764e-003	0.0	-1.316221e-003	-6.135511e-003	0.0	6.448808e-001	-5.575404e-002	0.0	8.242889e-001	-4.144445e-002	0.0	7.994971e-001	-4.411860e-002	0.0	3.485939e-001	7.347117e-002	0.0	8.477667e-001	-3.858706e-002	0.0	2.472716e-001	6.957100e-002	0.0	8.698685e-001	-3.554519e-002	0.0	1.009023e-002	2.051434e-002	0.0	8.904847e-001	-3.232948e-002	0.0	7.703156e-002	-4.814244e-002	0.0	9.095359e-001	-2.895285e-002	0.0	-1.838050e-003	-3.040607e-003	0.0	9.425885e-001	-2.161489e-002	0.0	9.269338e-001	-2.540445e-002	0.0	1.804987e-002	-2.573799e-002	0.0	4.259161e-001	-6.884495e-002	0.0	8.589988e-001	-3.708646e-002	0.0	9.564362e-001	-1.752106e-002	0.0	9.784377e-001	-9.363740e-003	0.0	9.684015e-001	-1.327857e-002	0.0	1.582484e-001	-6.324041e-002	0.0	9.002134e-001	-3.066102e-002	0.0	7.601299e-001	-4.773171e-002	0.0	9.971081e-001	-2.154305e-003	0.0	5.989336e-001	-5.865472e-002	0.0	4.416094e-001	-6.809771e-002	0.0	5.363556e-001	-6.262267e-002	0.0	4.731532e-001	-6.642640e-002	0.0	5.047719e-001	-6.457777e-002	0.0	4.889527e-001	-6.551928e-002	0.0	1.249263e-001	-5.832818e-002	0.0	2.793700e-002	-3.102290e-002	0.0	3.947529e-001	-7.012054e-002	0.0	4.627958e-002	-3.865
[...]
POINT_DATA 5233

SCALARS Density float 1
LOOKUP_TABLE default
1.215666e+000	1.197938e+000	1.190259e+000	1.186090e+000	1.183621e+000	1.180840e+000	1.175004e+000	1.164234e+000	1.146926e+000	1.122655e+000	1.092332e+000	1.058075e+000	1.023558e+000	9.943905e-001	9.742507e-001	9.629818e-001	9.577670e-001	9.552648e-001	9.532092e-001	9.506261e-001	9.475495e-001	9.444155e-001	9.416407e-001	9.393720e-001	9.375841e-001	9.361264e-001	9.349200e-001	9.339871e-001	9.334307e-001	9.334210e-001	9.341222e-001	9.355980e-001	9.378277e-001	9.406497e-001	9.438674e-001	9.472324e-001	9.504897e-001	9.534256e-001	9.558277e-001	9.575796e-001	9.585630e-001	9.587387e-001	9.580672e-001	9.565640e-001	9.542504e-001	9.511797e-001	9.473994e-001	9.429565e-001	9.379352e-001	9.325257e-001	9.268854e-001	9.207103e-001	9.133645e-001	9.057921e-001	9.018664e-001	9.044954e-001	9.068595e-001	8.895162e-001	8.357487e-001	7.756703e-001	7.502000e-001	7.514660e-001	7.590651e-001	7.653118e-001	7.700923e-001	7.750523e-001	7.809436e-001	7.876270e-001	7.948325e-001	8.023817e-001	8.103001e-001	8.187715e-001	8.279878e-001	8.379594e-001	8.485193e-001	8.594594e-001	8.707602e-001	8.825325e-001	8.947642e-001	9.074165e-001	9.205213e-001	9.340456e-001	9.480332e-001	9.625059e-001	9.775419e-001	9.932871e-001	1.009869e+000	1.027551e+000	1.046723e+000	1.067722e+000	1.091208e+000	1.118023e+000	1.148844e+000	1.184575e+000	1.225173e+000	1.269054e+000	1.309829e+000	1.344766e+000	1.350731e+000	1.339075e+000	1.330301e+000	1.293318e+000	1.216639e+000	1.148342e+000	1.085090e+000	1.030854e+000	9.870184e-001	9.521691e-001	9.239530e-001	9.006702e-001	8.809453e-001	8.637677e-001	8.486672e-001	8.351216e-001	8.228800e-001	8.118347e-001	8.017078e-001	7.922381e-001	7.833635e-001	7.750957e-001	7.675941e-001	7.609700e-001	7.550861e-001	7.496042e-001	7.443603e-001	7.395037e-001	7.353013e-001	7.316415e-001	7.282368e-001	7.249132e-001	7.217776e-001	7.189412e-001	7.163883e-001	7.139184e-001	7.113267e-001	7.084168e-001	7.050780e-001	7.012442e-001	6.968313e-001	6.918768e-001	6.864772e-001	6.807883e-001	6.748280e-001	6.685303e-001	6.618329e-001	6.549107e-001	6.478926e-001	6.410456e-001	6.344817e-001	6.283470e-001	6.227668e-001	6.181159e-001	6.150081e-001	6.126865e-001	6.079433e-001	6.036296e-001	6.849155e-001	8.902190e-001	1.001779e+000	1.003182e+000	9.962406e-001	9.986949e-001	1.001604e+000	1.002735e+000	1.003486e+000	1.003835e+000	1.003497e+000	1.002343e+000	1.000346e+000	9.974595e-001	9.936729e-001	9.890592e-001	9.837099e-001	9.778650e-001	9.718875e-001	9.662356e-001	9.614656e-001	9.580063e-001	9.561163e-001	9.556974e-001	9.564652e-001	9.582510e-001	9.615940e-001	9.679198e-001	9.794551e-001	9.980085e-001	1.023492e+000	1.053086e+000	1.082480e+000	1.108589e+000	1.129584e+000	1.144800e+000	1.154677e+000	1.160641e+000	1.164237e+000	1.167880e+000	1.172790e+000	1.181345e+000	1.191498e+000	1.188332e+000	9.993070e-001	9.997756e-001	9.997925e-001	9.996899e-001	9.996092e-001	9.995101e-001	9.993911e-001	9.992418e-001	9.990793e-001	9.989646e-001	9.989015e-001	9.989604e-001	9.991139e-001	9.994073e-001	9.996546e-001	9.998580e-001	9.999749e-001	1.000050e+000	1.000100e+000	1.000124e+000	1.000139e+000	1.000147e+000	1.000154e+000	1.000161e+000	1.000167e+000	1.000176e+000	1.000191e+000	1.000211e+000	1.000237e+000	1.000278e+000	1.000323e+000	1.000397e+000	1.000469e+000	1.000592e+000	1.000706e+000	1.000845e+000	1.000992e+000	1.001052e+000	1.001072e+000	1.000995e+000	1.000909e+000	1.000779e+000	1.000657e+000	1.000535e+000	1.000424e+000	1.000293e+000	1.000192e+000	1.000183e+000	9.996498e-001	9.989695e-001	9.677408e-001	9.568237e-001	6.655220e-001	1.000368e+000	9.100635e-001	1.197938e+000	1.191034e+000	9.378565e-001	9.527325e-001	1.274812e+000	9.416332e-001	6.053380e-001	1.174289e+000	1.168405e+000	6.146345e-001	9.471460e-001	1.335012e+000	1.159657e+000	1.146632e+000	1.327986e+000	9.579709e-001	9.380173e-001	9.367597e-001	6.953717e-001	9.407572e-001	7.204910e-001	9.448838e-001	1.012913e+000	9.508553e-001	9.388330e-001	9.577703e-001	1.345875e+000	9.803819e-001	9.648818e-001	1.100113e+000	9.049534e-001	9.426124e-001	1.020067e+000	1.128537e+000	1.078109e+000	8.424370e-001	9.543179e-001	9.394382e-001	1.183627e+000	9.569845e-001	9.110363e-001	9.454194e-001	9.253430e-001	9.359784e-001	9.308186e-001	8.753208e-001	1.054450e+000	9.124081e-001	9.992482e-001	9.055665e-001	7.546090e-001	8.013110e-001	1.034654e+000	7.694260e-001	9.705369e-001	8.529732e-001	8.150854e-001	9.251826e-001	8.992670e-001	9.525709e-001	8.325821e-001	9.580789e-001	9.476413e-001	1.076109e+000	1.178879e+000	1.190750e+000	9.463671e-001	9.611133e-001	9.966915e-001	1.105379e+000	1.219619e+000	9.392363e-001	7.854218e-001	9.493234e-001	9.442675e-001	9.369625e-001	8.870518e-001	7.994050e-001	9.551442e-001	9.550492e-001	9.831152e-001	1.227278e+000	1.126945e+000	8.712679e-001	8.235120e-001	1.225331e+000	7.921115e-001	9.119989e-001	7.619110e-001	7.796241e-001	9.188086e-001	9.500445e-001	1.319091e+000	1.300802e+000	6.217718e-001	1.341454e+000	8.989667e-001	8.349634e-001	8.631968e-001	7.680894e-001	6.721674e-001	1.166814e+000	6.264497e-001	6.448218e-001	1.094245e+000	1.045584e+000	9.633632e-001	6.383304e-001	6.586148e-001	6.844138e-001	9.694698e-001	9.636724e-001	8.015451e-001	1.114266e+000	1.021266e+000	9.855503e-001	7.830804e-001	8.229081e-001	7.122089e-001	7.179315e-001	7.404326e-001	7.048209e-001	6.516867e-001	6.784920e-001	7.499825e-001	7.616926e-001	9.974987e-001	7.327431e-001	7.259942e-001	9.964616e-001	6.130519e-001	1.002853e+000	1.002397e+000	9.955864e-001	1.000723e+000	9.777498e-001	9.875688e-001	9.628352e-001	9.685907e-001	1.000720e+000	9.657890e-001	1.070840e+000	9.728752e-001	9.653124e-001	9.919083e-001	9.827639e-001	1.002142e+000	9.985413e-001	1.001694e+000	1.002869e+000	1.007641e+000	9.969712e-001	6.192480e-001	7.765458e-001	7.292280e-001	7.231270e-001	7.448890e-001	7.364769e-001	8.482886e-001	7.556825e-001	9.766454e-001	8.799702e-001	8.070855e-001	1.106234e+000	1.048489e+000	9.371539e-001	7.594168e-001	9.409269e-001	1.162431e+000	9.207984e-001	1.055938e+000	7.919362e-001	8.118319e-001	7.152220e-001	7.751372e-001	1.130100e+000	1.141800e+000	7.087661e-001	1.150100e+000	1.156161e+000	7.003620e-001	6.900371e-001	9.755810e-001	1.200361e+000	1.174429e+000	1.182442e+000	9.583954e-001	1.016357e+000	1.161326e+000	6.322255e-001	1.265346e+000	1.157157e+000	9.529997e-001	8.639803e-001	7.746464e-001	8.229711e-001	1.252920e+000	1.296365e+000	7.801182e-001	9.524053e-001	9.664465e-001	1.186344e+000	6.106213e-001	9.544892e-001	9.408041e-001	1.154696e+000	7.632000e-001	9.462470e-001	9.427441e-001	9.302194e-001	1.307077e+000	8.127974e-001	1.128676e+000	1.042165e+000	8.583304e-001	9.500339e-001	9.573811e-001	9.173829e-001	9.438610e-001	9.132257e-001	9.582761e-001	9.404733e-001	1.066616e+000	9.635155e-001	9.958799e-001	9.828066e-001	7.840867e-001	9.996323e-001	7.515393e-001	9.724472e-001	1.138437e+000	7.042750e-001	6.371437e-001	1.021133e+000	9.707088e-001	1.146221e+000	1.040540e+000	1.115634e+000	7.283031e-001	7.088204e-001	7.313107e-001	7.924069e-001	9.562084e-001	8.209538e-001	1.027485e+000	7.627338e-001	8.619971e-001	1.081496e+000	1.152583e+000	9.702207e-001	8.479641e-001	1.213031e+000	1.165081e+000	1.158563e+000	1.110394e+000	1.206449e+000	1.218050e+000	1.337398e+000	1.332923e+000	1.103332e+000	1.222936e+000	9.727236e-001	1.181025e+000	1.169145e+000	6.764314e-001	9.475050e-001	1.143838e+000	9.513636e-001	6.090167e-001	1.162916e+000	1.329187e+000	9.106813e-001	6.827040e-001	9.443066e-001	7.196897e-001	9.485809e-001	9.546342e-001	9.580030e-001	9.622233e-001	9.713200e-001	1.000783e+000	1.059151e+000	1.019520e+000	1.066469e+000	1.129371e+000	8.806471e-001	9.433133e-001	9.417858e-001	1.174908e+000	9.238474e-001	9.293486e-001	9.343588e-001	1.080377e+000	9.098301e-001	9.071395e-001	7.854969e-001	1.021404e+000	9.777049e-001	9.870283e-001	8.692998e-001	9.170717e-001	9.508604e-001	9.571851e-001	1.090050e+000	1.111363e+000	9.476158e-001	9.453230e-001	9.044785e-001	8.923451e-001	9.536303e-001	9.557365e-001	1.004351e+000	9.881759e-001	1.156235e+000	8.432635e-001	8.970166e-001	8.383945e-001	8.294582e-001	8.050174e-001	7.977287e-001	7.737779e-001	7.656653e-001	7.911766e-001	1.323928e+000	1.250858e+000	8.776942e-001	1.128498e+000	6.316912e-001	6.434343e-001	6.498439e-001	6.563994e-001	1.099922e+000	1.061278e+000	9.772564e-001	6.632080e-001	6.698538e-001	6.887091e-001	9.733722e-001	1.004693e+000	8.348455e-001	8.477945e-001	7.254731e-001	7.226304e-001	7.567978e-001	7.694636e-001	7.765545e-001	9.968689e-001	1.001876e+000	1.001559e+000	9.990876e-001	9.868196e-001	9.711054e-001	9.752707e-001	9.788357e-001	9.906120e-001	9.940396e-001	1.000664e+000	1.001566e+000	1.001065e+000	1.000636e+000	9.976534e-001	1.008508e+000	6.227149e-001	6.273252e-001	9.261262e-001	6.656376e-001	7.345521e-001	7.382361e-001	7.423123e-001	7.467964e-001	9.933253e-001	8.953518e-001	9.153546e-001	9.407470e-001	9.415363e-001	9.391409e-001	9.435648e-001	1.158318e+000	9.378779e-001	8.016967e-001	8.119138e-001	7.128565e-001	7.164577e-001	6.942544e-001	6.994332e-001	9.921176e-001	9.832210e-001	9.579145e-001	9.579902e-001	1.039561e+000	1.282169e+000	7.854700e-001	1.307577e+000	9.144040e-001	7.859145e-001	9.444791e-001	9.460540e-001	9.770764e-001	1.135904e+000	1.127351e+000	1.055793e+000	1.154744e+000	1.143536e+000	1.172777e+000	1.183044e+000	1.171464e+000	1.204909e+000	1.105741e+000	1.304496e+000	9.360348e-001	9.838847e-001	1.151019e+000	6.246068e-001	1.189591e+000	1.209340e+000	9.525680e-001	1.264495e+000	9.506506e-001	1.129141e+000	9.553309e-001	1.181389e+000	7.794691e-001	9.525049e-001	9.543807e-001	1.158869e+000	1.154626e+000	1.104236e+000	6.434242e-001	1.022666e+000	9.937291e-001	1.149242e+000	6.494646e-001	7.277295e-001	7.133398e-001	7.646280e-001	8.472168e-001	1.178668e+000	1.284754e+000	1.232359e+000	1.007196e+000	1.273796e+000	1.059530e+000	9.495389e-001	1.326652e+000	8.643349e-001	9.226488e-001	1.083846e+000	1.074746e+000	9.868603e-001	9.974735e-001	9.973939e-001	1.116988e+000	1.038562e+000	9.771107e-001	9.774105e-001	7.174581e-001	7.245396e-001	7.371519e-001	8.026704e-001	9.570621e-001	9.558995e-001	8.272984e-001	1.039392e+000	7.705820e-001	1.089579e+000	1.155875e+000	1.113533e+000	1.195745e+000	1.237358e+000	1.318531e+000	1.063226e+000	1.199999e+000	1.192784e+000	1.079813e+000	1.141753e+000	6.043863e-001	9.166031e-001	6.875865e-001	9.480701e-001	9.500979e-001	9.586706e-001	9.624428e-001	9.781919e-001	9.636095e-001	9.667261e-001	9.715283e-001	1.020653e+000	1.039289e+000	1.130212e+000	9.456776e-001	9.448296e-001	1.164771e+000	9.281563e-001	9.331269e-001	9.110854e-001	9.116659e-001	1.044252e+000	9.928492e-001	1.004974e+000	8.866938e-001	8.752621e-001	9.494262e-001	9.522964e-001	1.098891e+000	1.115766e+000	9.487532e-001	9.470664e-001	9.230143e-001	9.103452e-001	8.982861e-001	9.545732e-001	9.562968e-001	1.026601e+000	1.009673e+000	9.934792e-001	8.174333e-001	8.757237e-001	9.095209e-001	8.543414e-001	8.449497e-001	8.359488e-001	8.190498e-001	8.112499e-001	7.789716e-001	7.726769e-001	8.040380e-001	8.921772e-001	6.555821e-001	6.620540e-001	1.073134e+000	6.684770e-001	6.750719e-001	6.813512e-001	6.935215e-001	9.843840e-001	8.609222e-001	8.758957e-001	7.307760e-001	7.339415e-001	7.774015e-001	7.854942e-001	7.939907e-001	1.000523e+000	9.804522e-001	9.781324e-001	9.787427e-001	9.809810e-001	9.837395e-001	9.899703e-001	9.928047e-001	9.953753e-001	9.989774e-001	1.000061e+000	1.000432e+000	1.000192e+000	1.000320e+000	9.997613e-001	1.001618e+000	6.319547e-001	6.380511e-001	9.972581e-001	8.030601e-001	6.223861e-001	7.406158e-001	7.443093e-001	7.486372e-001	7.535245e-001	7.589962e-001	9.101432e-001	9.305306e-001	9.446750e-001	9.453762e-001	9.464879e-001	9.377872e-001	9.421185e-001	9.534507e-001	9.786736e-001	8.122253e-001	8.229565e-001	8.346150e-001	7.211857e-001	6.992291e-001	7.043689e-001	7.090157e-001	1.009100e+000	9.982962e-001	9.901540e-001	9.573542e-001	9.578500e-001	9.577048e-001	7.975456e-001	7.917978e-001	1.286191e+000	9.421448e-001	1.147264e+000	1.106692e+000	9.481374e-001	1.282482e+000	1.176899e+000	9.897887e-001	9.987005e-001	1.066114e+000	1.133798e+000	6.632046e-001	1.264666e+000	1.048272e+000	1.198576e+000	1.052501e+000	1.140848e+000	1.214766e+000	1.004304e+000	1.183485e+000	1.184903e+000	1.202753e+000	9.482676e-001	8.718201e-001	1.106615e+000	9.150773e-001	9.555645e-001	9.220019e-001	7.934332e-001	1.117190e+000	6.326202e-001	1.038146e+000	1.024892e+000	9.972960e-001	7.802333e-001	7.372873e-001	1.139810e+000	8.738374e-001	9.599021e-001	1.161507e+000	1.126216e+000	1.162063e+000	1.089061e+000	1.127835e+000	9.546583e-001	1.222992e+000	9.534767e-001	9.516480e-001	1.150855e+000	1.148010e+000	1.174651e+000	9.898786e-001	6.560679e-001	7.268660e-001	1.251006e+000	1.079968e+000	9.978536e-001	9.837091e-001	7.231786e-001	7.305310e-001	7.338131e-001	9.570178e-001	9.561363e-001	1.094613e+000	1.113244e+000	1.148636e+000	1.246350e+000	1.298610e+000	1.085774e+000	1.072449e+000	1.129889e+000	6.216115e-001	9.544218e-001	9.568258e-001	9.632491e-001	9.672338e-001	9.836263e-001	9.693265e-001	9.716466e-001	9.767572e-001	9.827933e-001	1.038379e+000	1.055305e+000	9.483681e-001	9.487831e-001	1.155419e+000	9.273106e-001	9.323303e-001	9.142544e-001	9.169585e-001	1.009526e+000	1.022744e+000	8.936258e-001	8.818998e-001	9.510740e-001	1.104354e+000	1.118106e+000	9.506914e-001	9.494482e-001	9.292492e-001	9.169360e-001	9.053076e-001	9.535923e-001	9.554411e-001	1.048507e+000	1.031137e+000	1.014241e+000	9.984274e-001	8.071827e-001	8.522119e-001	8.961028e-001	9.139459e-001	8.622004e-001	8.528209e-001	8.437083e-001	8.349855e-001	8.267801e-001	7.876858e-001	7.875273e-001	8.190172e-001	6.690880e-001	1.081365e+000	1.067099e+000	6.755529e-001	6.815257e-001	6.878312e-001	6.935930e-001	6.995347e-001	8.895723e-001	9.067301e-001	7.406010e-001	7.443506e-001	7.871073e-001	7.949761e-001	8.043181e-001	8.140709e-001	9.913132e-001	9.874824e-001	9.848647e-001	9.835007e-001	9.843186e-001	9.857375e-001	9.879659e-001	9.921015e-001	9.941419e-001	9.960818e-001	9.984962e-001	9.987950e-001	9.992321e-001	9.985197e-001	9.981440e-001	9.964454e-001	9.956862e-001	6.508025e-001	6.447911e-001	1.006840e+000	9.232109e-001	6.986496e-001	6.294038e-001	7.479501e-001	7.520362e-001	7.561102e-001	7.611440e-001	7.667357e-001	7.732095e-001	9.247401e-001	9.445360e-001	9.496935e-001	9.507290e-001	9.522780e-001	9.369967e-001	9.407261e-001	9.446049e-001	9.673402e-001	9.921085e-001	1.018578e+000	8.239203e-001	8.346059e-001	8.468230e-001	8.598756e-001	7.049717e-001	7.103498e-001	7.150354e-001	7.191162e-001	9.968828e-001	1.013401e+000	1.004125e+000	9.568482e-001	9.576139e-001	9.579160e-001	9.577303e-001	8.119096e-001	8.054243e-001	7.995182e-001	1.146540e+000	1.142240e+000	1.082002e+000	1.181032e+000	1.167808e+000	9.541974e-001	9.488022e-001	1.188699e+000	1.098205e+000	1.229909e+000	1.086712e+000	8.811867e-001	7.986154e-001	1.083825e+000	1.172900e+000	1.256151e+000	1.305854e+000	1.306566e+000	1.295653e+000	1.246485e+000	1.156526e+000	7.334955e-001	1.095562e+000	1.138325e+000	1.014252e+000	9.529298e-001	9.193270e-001	1.132311e+000	1.002049e+000	1.027969e+000	6.523704e-001	6.666652e-001	1.020537e+000	9.971366e-001	6.778143e-001	9.481657e-001	7.285975e-001	1.125244e+000	9.619394e-001	1.173159e+000	1.108237e+000	1.301233e+000	1.197942e+000	1.189460e+000	1.002677e+000	1.069111e+000	1.264337e+000	1.055279e+000	1.209639e+000	1.050726e+000	1.200008e+000	1.183148e+000	1.190717e+000	1.126161e+000	7.989667e-001	8.038905e-001	1.117147e+000	6.333358e-001	1.038812e+000	1.129449e+000	9.561947e-001	1.229704e+000	7.360707e-001	7.408232e-001	7.432799e-001	9.577143e-001	1.112822e+000	1.142917e+000	1.276308e+000	1.106758e+000	9.616473e-001	9.636828e-001	9.684263e-001	9.714566e-001	9.753558e-001	9.896160e-001	9.772841e-001	9.812165e-001	9.885879e-001	9.960877e-001	1.053119e+000	1.067697e+000	9.521605e-001	1.145892e+000	9.258452e-001	9.308065e-001	9.185652e-001	9.218161e-001	1.026202e+000	1.038851e+000	9.004842e-001	8.885869e-001	1.108184e+000	1.119519e+000	9.530098e-001	9.357708e-001	9.231496e-001	9.142441e-001	9.535273e-001	1.052167e+000	1.035347e+000	1.018935e+000	1.004178e+000	8.099400e-001	8.337153e-001	8.733065e-001	9.060155e-001	9.164324e-001	8.697852e-001	8.621982e-001	8.509927e-001	8.441543e-001	8.340773e-001	1.087149e+000	1.075435e+000	1.063173e+000	6.821079e-001	6.895814e-001	6.940895e-001	7.011059e-001	7.052736e-001	9.034958e-001	9.210541e-001	7.483417e-001	7.510056e-001	8.039010e-001	8.149038e-001	8.259803e-001	9.982043e-001	9.929321e-001	9.914513e-001	9.887470e-001	9.890835e-001	9.883607e-001	9.898236e-001	9.914374e-001	9.934359e-001	9.954729e-001	9.972337e-001	9.939260e-001	9.969126e-001	8.833938e-001	6.450597e-001	7.566272e-001	7.594664e-001	7.657088e-001	7.688621e-001	7.763329e-001	7.828491e-001	7.903513e-001	9.394595e-001	9.585145e-001	9.550380e-001	9.559015e-001	9.589186e-001	9.363335e-001	9.417139e-001	9.798651e-001	1.004123e+000	1.028780e+000	8.368199e-001	8.478313e-001	8.599778e-001	8.742882e-001	8.886420e-001	7.117751e-001	7.156153e-001	7.214065e-001	7.259219e-001	1.018397e+000	1.010177e+000	9.567880e-001	9.580779e-001	8.281869e-001	8.192866e-001	8.144936e-001	8.067821e-001	1.182739e+000	1.167476e+000	1.178782e+000	1.270431e+000	1.196204e+000	1.100008e+000	1.117331e+000	1.211089e+000	1.060536e+000	1.158758e+000	1.120451e+000	1.256675e+000	1.087348e+000	1.160238e+000	7.371405e-001	1.180840e+000	1.111353e+000	1.186223e+000	1.141560e+000	1.088772e+000	9.455626e-001	1.109294e+000	8.164876e-001	1.028679e+000	1.012521e+000	9.577035e-001	9.551925e-001	8.838972e-001	1.228956e+000	9.232462e-001	9.824634e-001	9.691310e-001	8.208439e-001	1.091086e+000	1.010496e+000	1.234245e+000	1.085828e+000	1.076966e+000	1.176300e+000	1.100381e+000	1.303113e+000	1.244032e+000	1.129326e+000	9.562104e-001	6.839083e-001	6.933993e-001	1.124629e+000	1.184674e+000	1.144522e+000	1.280701e+000	1.192246e+000	1.071431e+000	1.214026e+000	1.196867e+000	6.475786e-001	1.105178e+000	1.050561e+000	1.040371e+000	6.707059e-001	7.445993e-001	7.525713e-001	9.570634e-001	1.137106e+000	1.162500e+000	1.123916e+000	9.703637e-001	9.788748e-001	9.954093e-001	9.896202e-001	1.001593e+000	1.064647e+000	1.137370e+000	9.267607e-001	1.040729e+000	1.052259e+000	9.022487e-001	1.110546e+000	9.558877e-001	9.565463e-001	9.372734e-001	9.209530e-001	9.510837e-001	1.055392e+000	1.038341e+000	1.022798e+000	1.011668e+000	8.417798e-001	8.960010e-001	9.213403e-001	8.649240e-001	8.474112e-001	1.081290e+000	1.071135e+000	7.045042e-001	7.149510e-001	9.344166e-001	7.614143e-001	8.376476e-001	9.945208e-001	1.000594e+000	9.947849e-001	9.925190e-001	9.927747e-001	9.935907e-001	9.956436e-001	9.961367e-001	9.926834e-001	9.903049e-001	1.009028e+000	9.848299e-001	7.603946e-001	6.484710e-001	7.712857e-001	7.821435e-001	7.937732e-001	7.990489e-001	8.096281e-001	9.537149e-001	9.722480e-001	9.585544e-001	9.612600e-001	9.659733e-001	9.340274e-001	9.400461e-001	9.916936e-001	1.014126e+000	1.037548e+000	1.060908e+000	8.504750e-001	8.619091e-001	8.739497e-001	8.881606e-001	9.052787e-001	9.162577e-001	7.241110e-001	7.319730e-001	1.030354e+000	1.022584e+000	9.553356e-001	9.584807e-001	9.580993e-001	8.319837e-001	8.197863e-001	1.130691e+000	1.182513e+000	1.178302e+000	1.151044e+000	1.035099e+000	1.117818e+000	1.178420e+000	1.153121e+000	1.184836e+000	1.136661e+000	1.165363e+000	1.143745e+000	1.131504e+000	1.214484e+000	1.237780e+000	1.076824e+000	9.591160e-001	7.431041e-001	1.139320e+000	1.003555e+000	1.103510e+000	9.392845e-001	1.109548e+000	1.169224e+000	9.245090e-001	1.041627e+000	9.586374e-001	9.489155e-001	1.093705e+000	1.103278e+000	1.087578e+000	1.073569e+000	1.176236e+000	1.102145e+000	1.109857e+000	1.059341e+000	7.580214e-001	6.532386e-001	9.591641e-001	1.000729e+000	1.163046e+000	1.167570e+000	1.282239e+000	1.083630e+000	1.067883e+000	1.191527e+000	1.112435e+000	1.194661e+000	1.152730e+000	9.436321e-001	1.225545e+000	9.907265e-001	9.751201e-001	1.093999e+000	1.249285e+000	1.073315e+000	1.121024e+000	9.589435e-001	1.259434e+000	1.191720e+000	1.015756e+000	1.212791e+000	1.199401e+000	6.