# vtk DataFile Version 3.0
vtk output
ASCII
DATASET UNSTRUCTURED_GRID
POINTS 5233 float
9.997500e-001	-3.632641e-005	0.0	9.990000e-001	-1.450924e-004	0.0	9.977600e-001	-3.233475e-004	0.0	9.960200e-001	-5.675238e-004	0.0	9.937800e-001	-8.664713e-004	0.0	9.910500e-001	-1.200566e-003	0.0	9.878400e-001	-1.546113e-003	0.0	9.841300e-001	-1.885627e-003	0.0	9.799500e-001	-2.211190e-003	0.0	9.752800e-001	-2.543965e-003	0.0	9.701500e-001	-2.928869e-003	0.0	9.645400e-001	-3.433812e-003	0.0	9.584700e-001	-4.124575e-003	0.0	9.519400e-001	-5.048518e-003	0.0	9.449600e-001	-6.216758e-003	0.0	9.375400e-001	-7.601871e-003	0.0	9.296900e-001	-9.146391e-003	0.0	9.214000e-001	-1.078130e-002	0.0	9.127000e-001	-1.242813e-002	0.0	9.035800e-001	-1.402440e-002	0.0	8.940600e-001	-1.551492e-002	0.0	8.841500e-001	-1.686040e-002	0.0	8.738500e-001	-1.803549e-002	0.0	8.631800e-001	-1.902401e-002	0.0	8.521600e-001	-1.982149e-002	0.0	8.407700e-001	-2.043634e-002	0.0	8.290500e-001	-2.088305e-002	0.0	8.170100e-001	-2.118737e-002	0.0	8.046400e-001	-2.138253e-002	0.0	7.919700e-001	-2.150629e-002	0.0	7.790100e-001	-2.159982e-002	0.0	7.657800e-001	-2.170446e-002	0.0	7.522800e-001	-2.185955e-002	0.0	7.385200e-001	-2.210038e-002	0.0	7.245300e-001	-2.245615e-002	0.0	7.103200e-001	-2.294966e-002	0.0	6.958900e-001	-2.359739e-002	0.0	6.812700e-001	-2.440771e-002	0.0	6.664700e-001	-2.538335e-002	0.0	6.515000e-001	-2.652162e-002	0.0	6.363800e-001	-2.781434e-002	0.0	6.211300e-001	-2.924938e-002	0.0	6.057600e-001	-3.081264e-002	0.0	5.902800e-001	-3.248810e-002	0.0	5.747100e-001	-3.425737e-002	0.0	5.590600e-001	-3.610232e-002	0.0	5.433600e-001	-3.800204e-002	0.0	5.276100e-001	-3.993912e-002	0.0	5.118400e-001	-4.189261e-002	0.0	4.960500e-001	-4.384550e-002	0.0	4.802700e-001	-4.577738e-002	0.0	4.645100e-001	-4.767073e-002	0.0	4.487800e-001	-4.950843e-002	0.0	4.331100e-001	-5.127162e-002	0.0	4.175000e-001	-5.294550e-002	0.0	4.019700e-001	-5.451375e-002	0.0	3.865400e-001	-5.596106e-002	0.0	3.712300e-001	-5.727338e-002	0.0	3.560400e-001	-5.843955e-002	0.0	3.409900e-001	-5.944799e-002	0.0	3.261100e-001	-6.028843e-002	0.0	3.114000e-001	-6.095414e-002	0.0	2.968700e-001	-6.143934e-002	0.0	2.825500e-001	-6.173959e-002	0.0	2.684500e-001	-6.185326e-002	0.0	2.545700e-001	-6.178037e-002	0.0	2.409400e-001	-6.152287e-002	0.0	2.275700e-001	-6.108466e-002	0.0	2.144700e-001	-6.047119e-002	0.0	2.016600e-001	-5.969004e-002	0.0	1.891400e-001	-5.874893e-002	0.0	1.769300e-001	-5.765803e-002	0.0	1.650400e-001	-5.642782e-002	0.0	1.534900e-001	-5.507070e-002	0.0	1.422900e-001	-5.359863e-002	0.0	1.314400e-001	-5.202223e-002	0.0	1.209500e-001	-5.035321e-002	0.0	1.108500e-001	-4.860654e-002	0.0	1.011300e-001	-4.679008e-002	0.0	9.181000e-002	-4.491607e-002	0.0	8.290000e-002	-4.299420e-002	0.0	7.440000e-002	-4.103067e-002	0.0	6.633000e-002	-3.903494e-002	0.0	5.869000e-002	-3.701029e-002	0.0	5.149000e-002	-3.496080e-002	0.0	4.474000e-002	-3.288905e-002	0.0	3.844000e-002	-3.079272e-002	0.0	3.260000e-002	-2.867074e-002	0.0	2.723000e-002	-2.652076e-002	0.0	2.232000e-002	-2.433013e-002	0.0	1.790000e-002	-2.210255e-002	0.0	1.395000e-002	-1.981647e-002	0.0	1.049000e-002	-1.746989e-002	0.0	7.520000e-003	-1.505003e-002	0.0	5.040000e-003	-1.254299e-002	0.0	3.050000e-003	-9.933512e-003	0.0	1.560000e-003	-7.224893e-003	0.0	5.600000e-004	-4.388944e-003	0.0	6.000000e-005	-1.440961e-003	0.0	0.000000e+000	0.000000e+000	0.0	6.000000e-005	1.319665e-003	0.0	5.600000e-004	3.892268e-003	0.0	1.560000e-003	6.340596e-003	0.0	3.050000e-003	8.699844e-003	0.0	5.040000e-003	1.101237e-002	0.0	7.520000e-003	1.328119e-002	0.0	1.049000e-002	1.551931e-002	0.0	1.395000e-002	1.773495e-002	0.0	1.790000e-002	1.993309e-002	0.0	2.232000e-002	2.210696e-002	0.0	2.723000e-002	2.426816e-002	0.0	3.260000e-002	2.640354e-002	0.0	3.844000e-002	2.851639e-002	0.0	4.474000e-002	3.060046e-002	0.0	5.149000e-002	3.264915e-002	0.0	5.869000e-002	3.465813e-002	0.0	6.633000e-002	3.661944e-002	0.0	7.440000e-002	3.852498e-002	0.0	8.290000e-002	4.036868e-002	0.0	9.181000e-002	4.213999e-002	0.0	1.011300e-001	4.383275e-002	0.0	1.108500e-001	4.543886e-002	0.0	1.209500e-001	4.694927e-002	0.0	1.314400e-001	4.835990e-002	0.0	1.422900e-001	4.966166e-002	0.0	1.534900e-001	5.084941e-002	0.0	1.650400e-001	5.191968e-002	0.0	1.769300e-001	5.286876e-002	0.0	1.891400e-001	5.369336e-002	0.0	2.016600e-001	5.439224e-002	0.0	2.144700e-001	5.496487e-002	0.0	2.275700e-001	5.541283e-002	0.0	2.409400e-001	5.573795e-002	0.0	2.545700e-001	5.594357e-002	0.0	2.684500e-001	5.603395e-002	0.0	2.825500e-001	5.601427e-002	0.0	2.968700e-001	5.589062e-002	0.0	3.114000e-001	5.566954e-002	0.0	3.261100e-001	5.535842e-002	0.0	3.409900e-001	5.496475e-002	0.0	3.560400e-001	5.449573e-002	0.0	3.712300e-001	5.395945e-002	0.0	3.865400e-001	5.336369e-002	0.0	4.019700e-001	5.271522e-002	0.0	4.175000e-001	5.202131e-002	0.0	4.331100e-001	5.128895e-002	0.0	4.487800e-001	5.052492e-002	0.0	4.645100e-001	4.973479e-002	0.0	4.802700e-001	4.892544e-002	0.0	4.960500e-001	4.810273e-002	0.0	5.118400e-001	4.727253e-002	0.0	5.276100e-001	4.644184e-002	0.0	5.433600e-001	4.561625e-002	0.0	5.590600e-001	4.480297e-002	0.0	5.747100e-001	4.400767e-002	0.0	5.902800e-001	4.323731e-002	0.0	6.057600e-001	4.249735e-002	0.0	6.211300e-001	4.179284e-002	0.0	6.363800e-001	4.112706e-002	0.0	6.515000e-001	4.050155e-002	0.0	6.664700e-001	3.991599e-002	0.0	6.812700e-001	3.936727e-002	0.0	6.958900e-001	3.884883e-002	0.0	7.103200e-001	3.835077e-002	0.0	7.245300e-001	3.786051e-002	0.0	7.385200e-001	3.736123e-002	0.0	7.522800e-001	3.683363e-002	0.0	7.657800e-001	3.625710e-002	0.0	7.790100e-001	3.560919e-002	0.0	7.919700e-001	3.486674e-002	0.0	8.046400e-001	3.400872e-002	0.0	8.170100e-001	3.301596e-002	0.0	8.290500e-001	3.187486e-002	0.0	8.407700e-001	3.057296e-002	0.0	8.521600e-001	2.910464e-002	0.0	8.631800e-001	2.747512e-002	0.0	8.738500e-001	2.568799e-002	0.0	8.841500e-001	2.375958e-002	0.0	8.940600e-001	2.171481e-002	0.0	9.035800e-001	1.958303e-002	0.0	9.127000e-001	1.740437e-002	0.0	9.214000e-001	1.523019e-002	0.0	9.296900e-001	1.311140e-002	0.0	9.375400e-001	1.111184e-002	0.0	9.449600e-001	9.281411e-003	0.0	9.519400e-001	7.663047e-003	0.0	9.584700e-001	6.279531e-003	0.0	9.645400e-001	5.129015e-003	0.0	9.701500e-001	4.185280e-003	0.0	9.752800e-001	3.410958e-003	0.0	9.799500e-001	2.759637e-003	0.0	9.841300e-001	2.199552e-003	0.0	9.878400e-001	1.704990e-003	0.0	9.910500e-001	1.270079e-003	0.0	9.937800e-001	8.915249e-004	0.0	9.960200e-001	5.744392e-004	0.0	9.977600e-001	3.246259e-004	0.0	9.990000e-001	1.452089e-004	0.0	9.997500e-001	3.632825e-005	0.0	1.000000e+000	0.000000e+000	0.0	1.984229e+001	2.506660e+000	0.0	1.937166e+001	4.973800e+000	0.0	1.859553e+001	7.362490e+000	0.0	1.752613e+001	9.635070e+000	0.0	1.618034e+001	1.175571e+001	0.0	1.457937e+001	1.369094e+001	0.0	1.274848e+001	1.541027e+001	0.0	1.071654e+001	1.688656e+001	0.0	8.515590e+000	1.809654e+001	0.0	6.180340e+000	1.902113e+001	0.0	3.747630e+000	1.964575e+001	0.0	1.255810e+000	1.996053e+001	0.0	-1.255810e+000	1.996053e+001	0.0	-3.747630e+000	1.964574e+001	0.0	-6.180340e+000	1.902113e+001	0.0	-8.515590e+000	1.809654e+001	0.0	-1.071654e+001	1.688656e+001	0.0	-1.274848e+001	1.541026e+001	0.0	-1.457937e+001	1.369094e+001	0.0	-1.618034e+001	1.175570e+001	0.0	-1.752613e+001	9.635070e+000	0.0	-1.859553e+001	7.362490e+000	0.0	-1.937166e+001	4.973800e+000	0.0	-1.984229e+001	2.506660e+000	0.0	-2.000000e+001	0.000000e+000	0.0	-1.984229e+001	-2.506670e+000	0.0	-1.937166e+001	-4.973800e+000	0.0	-1.859553e+001	-7.362490e+000	0.0	-1.752613e+001	-9.635080e+000	0.0	-1.618034e+001	-1.175571e+001	0.0	-1.457937e+001	-1.369094e+001	0.0	-1.274848e+001	-1.541027e+001	0.0	-1.071653e+001	-1.688656e+001	0.0	-8.515580e+000	-1.809654e+001	0.0	-6.180340e+000	-1.902113e+001	0.0	-3.747620e+000	-1.964575e+001	0.0	-1.255810e+000	-1.996053e+001	0.0	1.255810e+000	-1.996053e+001	0.0	3.747630e+000	-1.964574e+001	0.0	6.180340e+000	-1.902113e+001	0.0	8.515590e+000	-1.809654e+001	0.0	1.071654e+001	-1.688656e+001	0.0	1.274848e+001	-1.541026e+001	0.0	1.457937e+001	-1.369094e+001	0.0	1.618034e+001	-1.175570e+001	0.0	1.752614e+001	-9.635070e+000	0.0	1.859553e+001	-7.362490e+000	0.0	1.937166e+001	-4.973790e+000	0.0	1.984229e+001	-2.506660e+000	0.0	2.000000e+001	0.000000e+000	0.0	6.073057e-002	-4.509069e-002	0.0	6.600280e-001	-4.019945e-002	0.0	4.258970e-001	6.607655e-002	0.0	6.894706e-001	5.264791e-002	0.0	3.797181e-001	-7.047454e-002	0.0	9.994551e-001	-7.168946e-004	0.0	9.985360e-001	-1.302608e-003	0.0	7.731762e-001	-3.395906e-002	0.0	6.895134e-001	-3.793818e-002	0.0	-1.330127e-003	5.985226e-003	0.0	7.461844e-001	-3.494846e-002	0.0	5.833233e-001	5.810718e-002	0.0	9.927396e-001	-3.480015e-003	0.0	9.898193e-001	-4.265652e-003	0.0	5.988488e-001	5.727055e-002	0.0	7.182675e-001	-3.621340e-002	0.0	-1.560258e-003	6.603595e-004	0.0	9.864023e-001	-5.072452e-003	0.0	9.825002e-001	-5.884527e-003	0.0	-1.407409e-003	-6.670216e-003	0.0	6.450443e-001	-4.153379e-002	0.0	8.239271e-001	-3.181885e-002	0.0	7.991219e-001	-3.301732e-002	0.0	3.488200e-001	6.856175e-002	0.0	8.474365e-001	-3.013454e-002	0.0	2.474792e-001	6.827266e-002	0.0	8.695663e-001	-2.780055e-002	0.0	1.010832e-002	1.986359e-002	0.0	8.901870e-001	-2.479616e-002	0.0	7.698003e-002	-4.984800e-002	0.0	9.092057e-001	-2.125350e-002	0.0	-1.886425e-003	-3.317278e-003	0.0	9.421041e-001	-1.386403e-002	0.0	9.265327e-001	-1.746642e-002	0.0	1.797508e-002	-2.727079e-002	0.0	4.263920e-001	-6.634844e-002	0.0	8.586845e-001	-2.905159e-002	0.0	9.559096e-001	-1.084799e-002	0.0	9.781102e-001	-6.726286e-003	0.0	9.679288e-001	-8.538505e-003	0.0	1.581935e-001	-6.618577e-002	0.0	8.999046e-001	-2.307774e-002	0.0	7.598057e-001	-3.443255e-002	0.0	9.971058e-001	-2.023577e-003	0.0	5.992821e-001	-4.625028e-002	0.0	4.421003e-001	-6.473506e-002	0.0	5.368491e-001	-5.364852e-002	0.0	4.736641e-001	-6.124092e-002	0.0	5.052868e-001	-5.749945e-002	0.0	4.894680e-001	-5.939298e-002	0.0	1.248594e-001	-6.072336e-002	0.0	2.787827e-002	-3.257317e-002	0.0	3.951886e-001	-6.923274e-002	0.0	4.623385e-002	-4.019
[...]
POINT_DATA 5233

SCALARS Density float 1
LOOKUP_TABLE default
1.180001e+000	1.157757e+000	1.140514e+000	1.125264e+000	1.111764e+000	1.101192e+000	1.094898e+000	1.094101e+000	1.098323e+000	1.105529e+000	1.112759e+000	1.117045e+000	1.116365e+000	1.109860e+000	1.097617e+000	1.080456e+000	1.059667e+000	1.036781e+000	1.013377e+000	9.911581e-001	9.717987e-001	9.567579e-001	9.471757e-001	9.435963e-001	9.457828e-001	9.527351e-001	9.631251e-001	9.755661e-001	9.888197e-001	1.001926e+000	1.014125e+000	1.024917e+000	1.034111e+000	1.041483e+000	1.047090e+000	1.050908e+000	1.053052e+000	1.053634e+000	1.052761e+000	1.050593e+000	1.047229e+000	1.042820e+000	1.037450e+000	1.031246e+000	1.024284e+000	1.016672e+000	1.008484e+000	9.997852e-001	9.906993e-001	9.815764e-001	9.724428e-001	9.621481e-001	9.515426e-001	9.483949e-001	9.563658e-001	9.471949e-001	8.545155e-001	7.238500e-001	6.769336e-001	6.866315e-001	6.998215e-001	7.101238e-001	7.191768e-001	7.293890e-001	7.408866e-001	7.531728e-001	7.660761e-001	7.794772e-001	7.932099e-001	8.071253e-001	8.211066e-001	8.351633e-001	8.493291e-001	8.636145e-001	8.778985e-001	8.919848e-001	9.057720e-001	9.192943e-001	9.325427e-001	9.454811e-001	9.581704e-001	9.706218e-001	9.829267e-001	9.951933e-001	1.007589e+000	1.020379e+000	1.033860e+000	1.048494e+000	1.064937e+000	1.083867e+000	1.106304e+000	1.133415e+000	1.165958e+000	1.204267e+000	1.246910e+000	1.290759e+000	1.326568e+000	1.349592e+000	1.344964e+000	1.324052e+000	1.308724e+000	1.264777e+000	1.179858e+000	1.110423e+000	1.051418e+000	1.003962e+000	9.675492e-001	9.397230e-001	9.174521e-001	8.988695e-001	8.827695e-001	8.682329e-001	8.548294e-001	8.420840e-001	8.297808e-001	8.178501e-001	8.060780e-001	7.942560e-001	7.823604e-001	7.704357e-001	7.586789e-001	7.472672e-001	7.361697e-001	7.251410e-001	7.140640e-001	7.031262e-001	6.927887e-001	6.831030e-001	6.738830e-001	6.648981e-001	6.562998e-001	6.483385e-001	6.412772e-001	6.351269e-001	6.298598e-001	6.253501e-001	6.214936e-001	6.182492e-001	6.154795e-001	6.131716e-001	6.113117e-001	6.100234e-001	6.094074e-001	6.093006e-001	6.094492e-001	6.097432e-001	6.102133e-001	6.110199e-001	6.122213e-001	6.139860e-001	6.162949e-001	6.192173e-001	6.226787e-001	6.265591e-001	6.306913e-001	6.350672e-001	6.404699e-001	6.473876e-001	6.542959e-001	6.552400e-001	6.497098e-001	7.026873e-001	8.566374e-001	9.731022e-001	9.789665e-001	9.609743e-001	9.485621e-001	9.399941e-001	9.299242e-001	9.186759e-001	9.085087e-001	9.007540e-001	8.963457e-001	8.963000e-001	9.011685e-001	9.111073e-001	9.255056e-001	9.434782e-001	9.639906e-001	9.862031e-001	1.009179e+000	1.031947e+000	1.053584e+000	1.073162e+000	1.089772e+000	1.102762e+000	1.111765e+000	1.116875e+000	1.118691e+000	1.118338e+000	1.117246e+000	1.116897e+000	1.118332e+000	1.122099e+000	1.128093e+000	1.136445e+000	1.146940e+000	1.160425e+000	1.179110e+000	1.164371e+000	9.986757e-001	9.995333e-001	9.995726e-001	9.993642e-001	9.991994e-001	9.989973e-001	9.987625e-001	9.984765e-001	9.981707e-001	9.979639e-001	9.978568e-001	9.979763e-001	9.982624e-001	9.988031e-001	9.992566e-001	9.996332e-001	9.998537e-001	9.999995e-001	1.000101e+000	1.000152e+000	1.000188e+000	1.000206e+000	1.000223e+000	1.000239e+000	1.000252e+000	1.000270e+000	1.000298e+000	1.000333e+000	1.000381e+000	1.000455e+000	1.000539e+000	1.000680e+000	1.000822e+000	1.001070e+000	1.001314e+000	1.001632e+000	1.001983e+000	1.002153e+000	1.002225e+000	1.002073e+000	1.001888e+000	1.001607e+000	1.001348e+000	1.001092e+000	1.000863e+000	1.000600e+000	1.000394e+000	1.000365e+000	9.994042e-001	9.981146e-001	9.993732e-001	1.048787e+000	6.110406e-001	7.596402e-001	7.788459e-001	1.162560e+000	1.148694e+000	1.019555e+000	1.050175e+000	1.253149e+000	1.035893e+000	6.309253e-001	1.110403e+000	1.102698e+000	6.352488e-001	1.046083e+000	1.322092e+000	1.098641e+000	1.098527e+000	1.335804e+000	1.046316e+000	9.756929e-001	9.983047e-001	6.161549e-001	9.586923e-001	6.465176e-001	9.565236e-001	9.963858e-001	9.748750e-001	9.737442e-001	1.009499e+000	1.346284e+000	1.084630e+000	1.049795e+000	1.116567e+000	9.566866e-001	9.552118e-001	1.105213e+000	1.101388e+000	1.108560e+000	8.666341e-001	9.907534e-001	1.028425e+000	1.133756e+000	1.032878e+000	9.512935e-001	1.004516e+000	9.698979e-001	9.874724e-001	9.789884e-001	9.082745e-001	1.073785e+000	9.311681e-001	1.026117e+000	9.684586e-001	7.161770e-001	6.889725e-001	1.056304e+000	7.350601e-001	1.068526e+000	8.806380e-001	8.251786e-001	9.609606e-001	9.349630e-001	1.019913e+000	8.527124e-001	1.038262e+000	9.631634e-001	1.093638e+000	1.121070e+000	1.208525e+000	9.400606e-001	1.029655e+000	1.097081e+000	1.105447e+000	1.193514e+000	9.659304e-001	7.711407e-001	1.012495e+000	1.041758e+000	1.009391e+000	9.217261e-001	7.977658e-001	1.026753e+000	1.050132e+000	1.012497e+000	1.245537e+000	1.143188e+000	6.883006e-001	8.389153e-001	1.193046e+000	7.842780e-001	9.480507e-001	7.251095e-001	7.584620e-001	9.591830e-001	1.048864e+000	1.301454e+000	1.314779e+000	6.198752e-001	1.333411e+000	9.000053e-001	8.408056e-001	8.682952e-001	7.546131e-001	6.111865e-001	1.141131e+000	6.170742e-001	6.120788e-001	1.113764e+000	1.107728e+000	9.627000e-001	6.132105e-001	6.111058e-001	6.125132e-001	1.043520e+000	1.003075e+000	8.029022e-001	1.114637e+000	1.100883e+000	1.077750e+000	7.781680e-001	8.279582e-001	6.297767e-001	6.401624e-001	6.992006e-001	6.219408e-001	6.114310e-001	6.116304e-001	7.205777e-001	7.432553e-001	6.484670e-001	6.798177e-001	6.618158e-001	6.498561e-001	6.268820e-001	9.557981e-001	9.902828e-001	9.208503e-001	9.403979e-001	9.093711e-001	9.079153e-001	9.824770e-001	9.290047e-001	1.090888e+000	1.023699e+000	1.111792e+000	9.170274e-001	9.445865e-001	9.129904e-001	9.064785e-001	9.482574e-001	9.305480e-001	9.576204e-001	9.709870e-001	6.523484e-001	6.556893e-001	6.231882e-001	6.408381e-001	6.706050e-001	6.537779e-001	7.096204e-001	6.893674e-001	8.541626e-001	7.319326e-001	9.654770e-001	8.834558e-001	8.114386e-001	1.080806e+000	1.108876e+000	9.868190e-001	7.030672e-001	9.961016e-001	1.135143e+000	9.185699e-001	1.034362e+000	7.904681e-001	8.153730e-001	6.345955e-001	7.661982e-001	1.115468e+000	1.117188e+000	6.255842e-001	1.120430e+000	1.125449e+000	6.188472e-001	6.140132e-001	1.061778e+000	1.191154e+000	1.152617e+000	1.163777e+000	1.042749e+000	1.040590e+000	1.132373e+000	6.148441e-001	1.282572e+000	1.173976e+000	9.865065e-001	8.945757e-001	7.463480e-001	8.254563e-001	1.235424e+000	1.281992e+000	7.533837e-001	1.046180e+000	1.024965e+000	1.202697e+000	6.274521e-001	1.046769e+000	1.015053e+000	1.103738e+000	7.226647e-001	9.675808e-001	9.781732e-001	9.638633e-001	1.316451e+000	8.168112e-001	1.144998e+000	1.100059e+000	8.841409e-001	1.044287e+000	1.044487e+000	9.582571e-001	9.768403e-001	8.747137e-001	9.930312e-001	1.005938e+000	1.049818e+000	9.579216e-001	6.434237e-001	9.194951e-001	7.750759e-001	6.906914e-001	7.177470e-001	9.480892e-001	1.117850e+000	6.233635e-001	6.165231e-001	1.089973e+000	9.635979e-001	1.121981e+000	1.098048e+000	1.112482e+000	6.611369e-001	6.270357e-001	6.692465e-001	7.871259e-001	1.046220e+000	8.302603e-001	1.014236e+000	7.398229e-001	8.665515e-001	1.107744e+000	1.127516e+000	9.808074e-001	8.705629e-001	1.199140e+000	1.143067e+000	1.134526e+000	1.091009e+000	1.186125e+000	1.234371e+000	1.335288e+000	1.324860e+000	1.120276e+000	1.199857e+000	1.003007e+000	1.138181e+000	1.116859e+000	6.138505e-001	1.008420e+000	1.101009e+000	9.718609e-001	6.314452e-001	1.108961e+000	1.333186e+000	9.540480e-001	6.148400e-001	9.714242e-001	6.411425e-001	9.675256e-001	9.805660e-001	9.898394e-001	1.008224e+000	1.042099e+000	1.085238e+000	1.078957e+000	1.094299e+000	1.102727e+000	1.100716e+000	9.113292e-001	1.030519e+000	1.023399e+000	1.126708e+000	9.677592e-001	9.765930e-001	9.846143e-001	1.098506e+000	9.595242e-001	9.621041e-001	7.060528e-001	1.045449e+000	1.058462e+000	1.073114e+000	8.977825e-001	9.508673e-001	1.015591e+000	1.033596e+000	1.102935e+000	1.101809e+000	1.041056e+000	1.036503e+000	9.378490e-001	9.246644e-001	1.022259e+000	1.028262e+000	1.030620e+000	1.016569e+000	1.172430e+000	6.966998e-001	7.377081e-001	8.571291e-001	8.437252e-001	8.034544e-001	7.903502e-001	7.426052e-001	7.326277e-001	7.775619e-001	1.312819e+000	1.266317e+000	8.815737e-001	1.114783e+000	6.185478e-001	6.149382e-001	6.139338e-001	6.132791e-001	1.110386e+000	1.103845e+000	1.034898e+000	6.130873e-001	6.132550e-001	6.162599e-001	1.017128e+000	1.079442e+000	8.386873e-001	8.523349e-001	6.537912e-001	6.470729e-001	7.285548e-001	7.516163e-001	7.633392e-001	9.323235e-001	9.625552e-001	9.783370e-001	9.410449e-001	9.179420e-001	9.988470e-001	9.349888e-001	9.253440e-001	9.200128e-001	9.250472e-001	9.498750e-001	9.563494e-001	9.865670e-001	8.896301e-001	6.449662e-001	6.477044e-001	6.240375e-001	6.210743e-001	6.420136e-001	6.362215e-001	6.778959e-001	6.873021e-001	6.971378e-001	7.073932e-001	9.839902e-001	8.978381e-001	9.157368e-001	9.963109e-001	9.867720e-001	9.927248e-001	1.000744e+000	1.137651e+000	9.355363e-001	7.996000e-001	8.124131e-001	6.311208e-001	6.358168e-001	6.180514e-001	6.203755e-001	1.066556e+000	1.051552e+000	1.038097e+000	1.041796e+000	1.061402e+000	1.295707e+000	7.652001e-001	1.313387e+000	9.304984e-001	7.613385e-001	1.011618e+000	1.004778e+000	1.037350e+000	1.118079e+000	1.114171e+000	1.095713e+000	1.138659e+000	1.123175e+000	1.153288e+000	1.167618e+000	1.130055e+000	1.184740e+000	1.122666e+000	1.296533e+000	9.674821e-001	1.051505e+000	1.107782e+000	6.251601e-001	1.150721e+000	1.224087e+000	1.041609e+000	1.276670e+000	1.039434e+000	1.145221e+000	9.806568e-001	1.196601e+000	7.287449e-001	9.779939e-001	1.042937e+000	1.114222e+000	1.170193e+000	1.107846e+000	6.186765e-001	1.080444e+000	6.356311e-001	1.128676e+000	6.174253e-001	6.546424e-001	6.324272e-001	7.380404e-001	8.499622e-001	1.160219e+000	1.294201e+000	1.218364e+000	9.989973e-001	1.262585e+000	1.096182e+000	9.804383e-001	1.321006e+000	8.886404e-001	9.656503e-001	1.101961e+000	1.061105e+000	9.301097e-001	9.428643e-001	6.576133e-001	1.110886e+000	1.089000e+000	9.807950e-001	9.658452e-001	6.371055e-001	6.481149e-001	6.775601e-001	7.973107e-001	1.042020e+000	1.042806e+000	8.362539e-001	1.028270e+000	7.489172e-001	1.104698e+000	1.135191e+000	1.098150e+000	1.179945e+000	1.251103e+000	1.319267e+000	1.082894e+000	1.168375e+000	1.159588e+000	1.098463e+000	1.103563e+000	6.286519e-001	9.581791e-001	6.182960e-001	9.826319e-001	9.788460e-001	9.870315e-001	9.967137e-001	1.006837e+000	9.935641e-001	1.008931e+000	1.022825e+000	1.085151e+000	1.091876e+000	1.101083e+000	1.025765e+000	1.018913e+000	1.121789e+000	9.743488e-001	9.820726e-001	9.644468e-001	9.588387e-001	1.065704e+000	1.064616e+000	1.075956e+000	9.152794e-001	9.019249e-001	1.011533e+000	1.017983e+000	1.099431e+000	1.099959e+000	1.035937e+000	1.031296e+000	9.545297e-001	9.414484e-001	9.284369e-001	1.023696e+000	1.029008e+000	1.049923e+000	1.034891e+000	1.020510e+000	7.132907e-001	7.206525e-001	8.091629e-001	8.756287e-001	8.625907e-001	8.494376e-001	8.231242e-001	8.101612e-001	7.509336e-001	7.405561e-001	7.973910e-001	8.947904e-001	6.162935e-001	6.157928e-001	1.100802e+000	6.156195e-001	6.159626e-001	6.168082e-001	6.202584e-001	1.028540e+000	8.642249e-001	8.791495e-001	6.616136e-001	6.694164e-001	7.604152e-001	7.728852e-001	7.852583e-001	9.690710e-001	1.012708e+000	9.965261e-001	9.526533e-001	9.418081e-001	9.344515e-001	9.292790e-001	9.316559e-001	9.361185e-001	9.509833e-001	9.584167e-001	9.628656e-001	9.870874e-001	9.705720e-001	8.002283e-001	6.430225e-001	6.225911e-001	6.204996e-001	6.410785e-001	6.368464e-001	6.325464e-001	6.863822e-001	6.955612e-001	7.056734e-001	7.162514e-001	7.272672e-001	9.115527e-001	9.301525e-001	1.003782e+000	9.958402e-001	9.885854e-001	9.897206e-001	9.973372e-001	9.507506e-001	9.733447e-001	8.097427e-001	8.227953e-001	8.361994e-001	6.423523e-001	6.227382e-001	6.254344e-001	6.285727e-001	1.069958e+000	1.057615e+000	1.043670e+000	1.033338e+000	1.037200e+000	1.039883e+000	7.849601e-001	7.729221e-001	1.293030e+000	9.713152e-001	1.128776e+000	1.106157e+000	1.007594e+000	1.276630e+000	1.138656e+000	1.047016e+000	1.058579e+000	1.085273e+000	1.118086e+000	6.200261e-001	1.274065e+000	1.039084e+000	1.212104e+000	1.087777e+000	1.123146e+000	1.203786e+000	6.315765e-001	1.171271e+000	1.170260e+000	1.172027e+000	1.009299e+000	8.945653e-001	1.123165e+000	9.536421e-001	9.843061e-001	9.635491e-001	7.712979e-001	1.109817e+000	6.242157e-001	1.080532e+000	1.071872e+000	9.514225e-001	7.602154e-001	6.718484e-001	1.106104e+000	8.759331e-001	9.900382e-001	1.141870e+000	1.113738e+000	1.124115e+000	1.095868e+000	1.143430e+000	1.038962e+000	1.235570e+000	1.036791e+000	1.034986e+000	1.165704e+000	1.111069e+000	1.188863e+000	9.387068e-001	6.201598e-001	6.507479e-001	1.241989e+000	1.069071e+000	6.506175e-001	9.828359e-001	6.452417e-001	6.574022e-001	6.640499e-001	1.039114e+000	1.038761e+000	1.102456e+000	1.101214e+000	1.136164e+000	1.257688e+000	1.301474e+000	1.103494e+000	1.093349e+000	1.102402e+000	6.270552e-001	9.891866e-001	9.880642e-001	9.946277e-001	1.002198e+000	1.010468e+000	9.972681e-001	1.011820e+000	1.023077e+000	1.035029e+000	1.084395e+000	1.089692e+000	1.021815e+000	1.015896e+000	1.117180e+000	9.717690e-001	9.797724e-001	9.629841e-001	9.597336e-001	1.068800e+000	1.077348e+000	9.200858e-001	9.067820e-001	1.013334e+000	1.097758e+000	1.099753e+000	1.030874e+000	1.026545e+000	9.585018e-001	9.457665e-001	9.331102e-001	1.019485e+000	1.023935e+000	1.069191e+000	1.053396e+000	1.038172e+000	1.023935e+000	7.385123e-001	7.353241e-001	7.774399e-001	8.825354e-001	8.820545e-001	8.693567e-001	8.565062e-001	8.437096e-001	8.310864e-001	7.503837e-001	7.612495e-001	8.185401e-001	6.194572e-001	1.098444e+000	1.093645e+000	6.196712e-001	6.201035e-001	6.213522e-001	6.229982e-001	6.256442e-001	8.915496e-001	9.080849e-001	6.795273e-001	6.883877e-001	7.712782e-001	7.830750e-001	7.959599e-001	8.087399e-001	1.024309e+000	1.010495e+000	9.962692e-001	9.698524e-001	9.590477e-001	9.500460e-001	9.443924e-001	9.396856e-001	9.423045e-001	9.446529e-001	9.573352e-001	9.646513e-001	9.702877e-001	9.842612e-001	9.888484e-001	9.008179e-001	7.172392e-001	6.215671e-001	6.225418e-001	6.353275e-001	6.369394e-001	6.332946e-001	6.302299e-001	6.969066e-001	7.064105e-001	7.156887e-001	7.262831e-001	7.371079e-001	7.486087e-001	9.250670e-001	9.434476e-001	1.003531e+000	9.970381e-001	9.923008e-001	9.871325e-001	9.936962e-001	1.000444e+000	9.643858e-001	9.870593e-001	1.011456e+000	8.211019e-001	8.338134e-001	8.475166e-001	8.615256e-001	6.285176e-001	6.322408e-001	6.359356e-001	6.400536e-001	1.037820e+000	1.061717e+000	1.050438e+000	1.028941e+000	1.031947e+000	1.035628e+000	1.037035e+000	8.063063e-001	7.941437e-001	7.825824e-001	1.160637e+000	1.124928e+000	1.091682e+000	1.164614e+000	1.181143e+000	1.031606e+000	9.757445e-001	1.201251e+000	1.100919e+000	1.240444e+000	1.103751e+000	9.025956e-001	7.845563e-001	1.075080e+000	1.163439e+000	1.251311e+000	1.301887e+000	1.303126e+000	1.292150e+000	1.255541e+000	1.120634e+000	6.609894e-001	1.094566e+000	1.108072e+000	1.062982e+000	1.011680e+000	9.590177e-001	1.117633e+000	1.033696e+000	1.064866e+000	6.243083e-001	6.235692e-001	6.388293e-001	9.599663e-001	6.236982e-001	1.005322e+000	6.529445e-001	1.113227e+000	9.884850e-001	1.155381e+000	1.104914e+000	1.300272e+000	1.165248e+000	1.154529e+000	1.054213e+000	1.087428e+000	1.271471e+000	1.047688e+000	1.221280e+000	1.080391e+000	1.191452e+000	1.162320e+000	1.163170e+000	1.141101e+000	7.704302e-001	7.831464e-001	1.108922e+000	6.267635e-001	1.073190e+000	1.103751e+000	1.034653e+000	1.222670e+000	6.659776e-001	6.754337e-001	6.812620e-001	1.034579e+000	1.103359e+000	1.133199e+000	1.280905e+000	1.122651e+000	9.969836e-001	9.972378e-001	1.002497e+000	1.007003e+000	1.001246e+000	1.014446e+000	1.015979e+000	1.024123e+000	1.034594e+000	1.045286e+000	1.083783e+000	1.088211e+000	1.020697e+000	1.112942e+000	9.680530e-001	9.754385e-001	9.630602e-001	9.632664e-001	1.071808e+000	1.078157e+000	9.249501e-001	9.120385e-001	1.097317e+000	1.100262e+000	1.026336e+000	9.627543e-001	9.499566e-001	9.399466e-001	1.016631e+000	1.071778e+000	1.056383e+000	1.041395e+000	1.027839e+000	7.650858e-001	7.553724e-001	7.764620e-001	8.348894e-001	9.152505e-001	8.886092e-001	8.781178e-001	8.633877e-001	8.531775e-001	8.388144e-001	1.096674e+000	1.092044e+000	1.086690e+000	6.235319e-001	6.252202e-001	6.258751e-001	6.289200e-001	6.305829e-001	9.043580e-001	9.213304e-001	6.918761e-001	6.984799e-001	7.927751e-001	8.069503e-001	8.207913e-001	1.021882e+000	1.009078e+000	9.974796e-001	9.845741e-001	9.747866e-001	9.636232e-001	9.573455e-001	9.494834e-001	9.486914e-001	9.504114e-001	9.849156e-001	9.731881e-001	7.391392e-001	6.295575e-001	6.305914e-001	7.100146e-001	7.169476e-001	7.290242e-001	7.362952e-001	7.492025e-001	7.604474e-001	7.723330e-001	9.388225e-001	9.567644e-001	1.004190e+000	9.993460e-001	9.981396e-001	9.840193e-001	9.932867e-001	9.767397e-001	9.993840e-001	1.022554e+000	8.338102e-001	8.464942e-001	8.598703e-001	8.749036e-001	8.895654e-001	6.351857e-001	6.380286e-001	6.439875e-001	6.491348e-001	1.055798e+000	1.044710e+000	1.025308e+000	1.031358e+000	8.288568e-001	8.146487e-001	8.053613e-001	7.919180e-001	1.145134e+000	1.147784e+000	1.190501e+000	1.267544e+000	1.165080e+000	1.094060e+000	1.108250e+000	1.205718e+000	1.080142e+000	1.123885e+000	1.100989e+000	1.262131e+000	1.103500e+000	1.172738e+000	6.663596e-001	1.163786e+000	1.103968e+000	1.179765e+000	1.154859e+000	1.090844e+000	9.974708e-001	1.103995e+000	7.896490e-001	1.066540e+000	1.055305e+000	1.024608e+000	9.798711e-001	9.029789e-001	1.237706e+000	9.619944e-001	1.006074e+000	9.933112e-001	8.120661e-001	1.095289e+000	1.034696e+000	1.230512e+000	1.078867e+000	1.087419e+000	1.159127e+000	1.099595e+000	1.300304e+000	1.251319e+000	1.104934e+000	1.026436e+000	6.274905e-001	6.290704e-001	1.112677e+000	1.159531e+000	1.127190e+000	1.282522e+000	1.159105e+000	1.088706e+000	1.223938e+000	1.207740e+000	6.275205e-001	1.120242e+000	1.074267e+000	1.066500e+000	6.265512e-001	6.808042e-001	6.975579e-001	1.029751e+000	1.129648e+000	1.155337e+000	1.138048e+000	1.006237e+000	1.015447e+000	1.018223e+000	1.029778e+000	1.044143e+000	1.083431e+000	1.109376e+000	9.683083e-001	1.073695e+000	1.078716e+000	9.246147e-001	1.097318e+000	1.022092e+000	1.016567e+000	9.621103e-001	9.446185e-001	1.008386e+000	1.073811e+000	1.058031e+000	1.043788e+000	1.033356e+000	7.849842e-001	8.407754e-001	9.304377e-001	8.787535e-001	8.545997e-001	1.090766e+000	1.085825e+000	6.328103e-001	6.391104e-001	9.338561e-001	7.158925e-001	8.324813e-001	9.550786e-001	1.013655e+000	9.918642e-001	9.729949e-001	9.623497e-001	9.571311e-001	9.561023e-001	9.753895e-001	1.000539e+000	8.900944e-001	6.683857e-001	6.283269e-001	6.306142e-001	6.285953e-001	7.353561e-001	7.550939e-001	7.738016e-001	7.825925e-001	7.970020e-001	9.523632e-001	9.700079e-001	1.010247e+000	1.005130e+000	1.004353e+000	9.779406e-001	9.874536e-001	9.884950e-001	1.009803e+000	1.032152e+000	1.054650e+000	8.473132e-001	8.601195e-001	8.731313e-001	8.879375e-001	9.052137e-001	9.162299e-001	6.476285e-001	6.576616e-001	1.059648e+000	1.050420e+000	1.017778e+000	1.028962e+000	1.030715e+000	8.312816e-001	8.087371e-001	1.116678e+000	1.147400e+000	1.141757e+000	1.132612e+000	1.053960e+000	1.107973e+000	1.159662e+000	1.120036e+000	1.195045e+000	1.149127e+000	1.129643e+000	1.113670e+000	1.125823e+000	1.211754e+000	1.243712e+000	1.085098e+000	1.022362e+000	6.757357e-001	1.123167e+000	1.040945e+000	1.117684e+000	9.382577e-001	1.103816e+000	1.180195e+000	9.472953e-001	1.069443e+000	1.023194e+000	1.001078e+000	1.090656e+000	1.094156e+000	1.102680e+000	1.089548e+000	1.158987e+000	1.098816e+000	1.103086e+000	1.074636e+000	7.056716e-001	6.302930e-001	1.026754e+000	1.021764e+000	1.144036e+000	1.148821e+000	1.281410e+000	1.087088e+000	1.079879e+000	1.161053e+000	1.097704e+000	1.190766e+000	1.164440e+000	9.910438e-001	1.232802e+000	1.012079e+000	9.971822e-001	1.094479e+000	1.247423e+000	1.083386e+000	1.101417e+000	1.025256e+000	1.262607e+000	1.159455e+000	1.035698e+000	1.221205e+000	1.208761e+000	6.