# vtk DataFile Version 3.0
vtk output
ASCII
DATASET UNSTRUCTURED_GRID
POINTS 5233 float
9.997500e-001	-3.632897e-005	0.0	9.990000e-001	-1.452538e-004	0.0	9.977600e-001	-3.251112e-004	0.0	9.960200e-001	-5.769984e-004	0.0	9.937800e-001	-9.004365e-004	0.0	9.910500e-001	-1.293364e-003	0.0	9.878400e-001	-1.753610e-003	0.0	9.841300e-001	-2.283177e-003	0.0	9.799500e-001	-2.876826e-003	0.0	9.752800e-001	-3.536324e-003	0.0	9.701500e-001	-4.256269e-003	0.0	9.645400e-001	-5.038225e-003	0.0	9.584700e-001	-5.878077e-003	0.0	9.519400e-001	-6.774429e-003	0.0	9.449600e-001	-7.724467e-003	0.0	9.375400e-001	-8.725349e-003	0.0	9.296900e-001	-9.774221e-003	0.0	9.214000e-001	-1.087086e-002	0.0	9.127000e-001	-1.200973e-002	0.0	9.035800e-001	-1.319056e-002	0.0	8.940600e-001	-1.440916e-002	0.0	8.841500e-001	-1.566269e-002	0.0	8.738500e-001	-1.694956e-002	0.0	8.631800e-001	-1.826569e-002	0.0	8.521600e-001	-1.960709e-002	0.0	8.407700e-001	-2.097463e-002	0.0	8.290500e-001	-2.236196e-002	0.0	8.170100e-001	-2.376642e-002	0.0	8.046400e-001	-2.518764e-002	0.0	7.919700e-001	-2.662063e-002	0.0	7.790100e-001	-2.806277e-002	0.0	7.657800e-001	-2.951034e-002	0.0	7.522800e-001	-3.096181e-002	0.0	7.385200e-001	-3.241453e-002	0.0	7.245300e-001	-3.386377e-002	0.0	7.103200e-001	-3.530689e-002	0.0	6.958900e-001	-3.674225e-002	0.0	6.812700e-001	-3.816515e-002	0.0	6.664700e-001	-3.957289e-002	0.0	6.515000e-001	-4.096270e-002	0.0	6.363800e-001	-4.233084e-002	0.0	6.211300e-001	-4.367359e-002	0.0	6.057600e-001	-4.498807e-002	0.0	5.902800e-001	-4.627133e-002	0.0	5.747100e-001	-4.751951e-002	0.0	5.590600e-001	-4.872956e-002	0.0	5.433600e-001	-4.989684e-002	0.0	5.276100e-001	-5.101898e-002	0.0	5.118400e-001	-5.209138e-002	0.0	4.960500e-001	-5.311154e-002	0.0	4.802700e-001	-5.407492e-002	0.0	4.645100e-001	-5.497836e-002	0.0	4.487800e-001	-5.581860e-002	0.0	4.331100e-001	-5.659142e-002	0.0	4.175000e-001	-5.729417e-002	0.0	4.019700e-001	-5.792324e-002	0.0	3.865400e-001	-5.847521e-002	0.0	3.712300e-001	-5.894684e-002	0.0	3.560400e-001	-5.933562e-002	0.0	3.409900e-001	-5.963848e-002	0.0	3.261100e-001	-5.985254e-002	0.0	3.114000e-001	-5.997565e-002	0.0	2.968700e-001	-6.000550e-002	0.0	2.825500e-001	-5.994005e-002	0.0	2.684500e-001	-5.977766e-002	0.0	2.545700e-001	-5.951658e-002	0.0	2.409400e-001	-5.915586e-002	0.0	2.275700e-001	-5.869457e-002	0.0	2.144700e-001	-5.813197e-002	0.0	2.016600e-001	-5.746811e-002	0.0	1.891400e-001	-5.670228e-002	0.0	1.769300e-001	-5.583514e-002	0.0	1.650400e-001	-5.486709e-002	0.0	1.534900e-001	-5.379978e-002	0.0	1.422900e-001	-5.263443e-002	0.0	1.314400e-001	-5.137134e-002	0.0	1.209500e-001	-5.001187e-002	0.0	1.108500e-001	-4.856067e-002	0.0	1.011300e-001	-4.701715e-002	0.0	9.181000e-002	-4.538527e-002	0.0	8.290000e-002	-4.366791e-002	0.0	7.440000e-002	-4.186608e-002	0.0	6.633000e-002	-3.998514e-002	0.0	5.869000e-002	-3.802636e-002	0.0	5.149000e-002	-3.599338e-002	0.0	4.474000e-002	-3.389028e-002	0.0	3.844000e-002	-3.171811e-002	0.0	3.260000e-002	-2.948109e-002	0.0	2.723000e-002	-2.718420e-002	0.0	2.232000e-002	-2.482329e-002	0.0	1.790000e-002	-2.241365e-002	0.0	1.395000e-002	-1.994492e-002	0.0	1.049000e-002	-1.742916e-002	0.0	7.520000e-003	-1.486756e-002	0.0	5.040000e-003	-1.226032e-002	0.0	3.050000e-003	-9.605565e-003	0.0	1.560000e-003	-6.917518e-003	0.0	5.600000e-004	-4.173160e-003	0.0	6.000000e-005	-1.375330e-003	0.0	0.000000e+000	0.000000e+000	0.0	6.000000e-005	1.375330e-003	0.0	5.600000e-004	4.173160e-003	0.0	1.560000e-003	6.917518e-003	0.0	3.050000e-003	9.605565e-003	0.0	5.040000e-003	1.226032e-002	0.0	7.520000e-003	1.486756e-002	0.0	1.049000e-002	1.742916e-002	0.0	1.395000e-002	1.994492e-002	0.0	1.790000e-002	2.241365e-002	0.0	2.232000e-002	2.482329e-002	0.0	2.723000e-002	2.718420e-002	0.0	3.260000e-002	2.948109e-002	0.0	3.844000e-002	3.171811e-002	0.0	4.474000e-002	3.389028e-002	0.0	5.149000e-002	3.599338e-002	0.0	5.869000e-002	3.802636e-002	0.0	6.633000e-002	3.998514e-002	0.0	7.440000e-002	4.186608e-002	0.0	8.290000e-002	4.366791e-002	0.0	9.181000e-002	4.538527e-002	0.0	1.011300e-001	4.701715e-002	0.0	1.108500e-001	4.856067e-002	0.0	1.209500e-001	5.001187e-002	0.0	1.314400e-001	5.137134e-002	0.0	1.422900e-001	5.263443e-002	0.0	1.534900e-001	5.379978e-002	0.0	1.650400e-001	5.486709e-002	0.0	1.769300e-001	5.583514e-002	0.0	1.891400e-001	5.670228e-002	0.0	2.016600e-001	5.746811e-002	0.0	2.144700e-001	5.813197e-002	0.0	2.275700e-001	5.869457e-002	0.0	2.409400e-001	5.915586e-002	0.0	2.545700e-001	5.951658e-002	0.0	2.684500e-001	5.977766e-002	0.0	2.825500e-001	5.994005e-002	0.0	2.968700e-001	6.000550e-002	0.0	3.114000e-001	5.997565e-002	0.0	3.261100e-001	5.985254e-002	0.0	3.409900e-001	5.963848e-002	0.0	3.560400e-001	5.933562e-002	0.0	3.712300e-001	5.894684e-002	0.0	3.865400e-001	5.847521e-002	0.0	4.019700e-001	5.792324e-002	0.0	4.175000e-001	5.729417e-002	0.0	4.331100e-001	5.659142e-002	0.0	4.487800e-001	5.581860e-002	0.0	4.645100e-001	5.497836e-002	0.0	4.802700e-001	5.407492e-002	0.0	4.960500e-001	5.311154e-002	0.0	5.118400e-001	5.209138e-002	0.0	5.276100e-001	5.101898e-002	0.0	5.433600e-001	4.989684e-002	0.0	5.590600e-001	4.872956e-002	0.0	5.747100e-001	4.751951e-002	0.0	5.902800e-001	4.627133e-002	0.0	6.057600e-001	4.498807e-002	0.0	6.211300e-001	4.367359e-002	0.0	6.363800e-001	4.233084e-002	0.0	6.515000e-001	4.096270e-002	0.0	6.664700e-001	3.957289e-002	0.0	6.812700e-001	3.816515e-002	0.0	6.958900e-001	3.674225e-002	0.0	7.103200e-001	3.530689e-002	0.0	7.245300e-001	3.386377e-002	0.0	7.385200e-001	3.241453e-002	0.0	7.522800e-001	3.096181e-002	0.0	7.657800e-001	2.951034e-002	0.0	7.790100e-001	2.806277e-002	0.0	7.919700e-001	2.662063e-002	0.0	8.046400e-001	2.518764e-002	0.0	8.170100e-001	2.376642e-002	0.0	8.290500e-001	2.236196e-002	0.0	8.407700e-001	2.097463e-002	0.0	8.521600e-001	1.960709e-002	0.0	8.631800e-001	1.826569e-002	0.0	8.738500e-001	1.694956e-002	0.0	8.841500e-001	1.566269e-002	0.0	8.940600e-001	1.440916e-002	0.0	9.035800e-001	1.319056e-002	0.0	9.127000e-001	1.200973e-002	0.0	9.214000e-001	1.087086e-002	0.0	9.296900e-001	9.774221e-003	0.0	9.375400e-001	8.725349e-003	0.0	9.449600e-001	7.724467e-003	0.0	9.519400e-001	6.774429e-003	0.0	9.584700e-001	5.878077e-003	0.0	9.645400e-001	5.038225e-003	0.0	9.701500e-001	4.256269e-003	0.0	9.752800e-001	3.536324e-003	0.0	9.799500e-001	2.876826e-003	0.0	9.841300e-001	2.283177e-003	0.0	9.878400e-001	1.753610e-003	0.0	9.910500e-001	1.293364e-003	0.0	9.937800e-001	9.004365e-004	0.0	9.960200e-001	5.769984e-004	0.0	9.977600e-001	3.251112e-004	0.0	9.990000e-001	1.452538e-004	0.0	9.997500e-001	3.632897e-005	0.0	1.000000e+000	0.000000e+000	0.0	1.984229e+001	2.506660e+000	0.0	1.937166e+001	4.973800e+000	0.0	1.859553e+001	7.362490e+000	0.0	1.752613e+001	9.635070e+000	0.0	1.618034e+001	1.175571e+001	0.0	1.457937e+001	1.369094e+001	0.0	1.274848e+001	1.541027e+001	0.0	1.071654e+001	1.688656e+001	0.0	8.515590e+000	1.809654e+001	0.0	6.180340e+000	1.902113e+001	0.0	3.747630e+000	1.964575e+001	0.0	1.255810e+000	1.996053e+001	0.0	-1.255810e+000	1.996053e+001	0.0	-3.747630e+000	1.964574e+001	0.0	-6.180340e+000	1.902113e+001	0.0	-8.515590e+000	1.809654e+001	0.0	-1.071654e+001	1.688656e+001	0.0	-1.274848e+001	1.541026e+001	0.0	-1.457937e+001	1.369094e+001	0.0	-1.618034e+001	1.175570e+001	0.0	-1.752613e+001	9.635070e+000	0.0	-1.859553e+001	7.362490e+000	0.0	-1.937166e+001	4.973800e+000	0.0	-1.984229e+001	2.506660e+000	0.0	-2.000000e+001	0.000000e+000	0.0	-1.984229e+001	-2.506670e+000	0.0	-1.937166e+001	-4.973800e+000	0.0	-1.859553e+001	-7.362490e+000	0.0	-1.752613e+001	-9.635080e+000	0.0	-1.618034e+001	-1.175571e+001	0.0	-1.457937e+001	-1.369094e+001	0.0	-1.274848e+001	-1.541027e+001	0.0	-1.071653e+001	-1.688656e+001	0.0	-8.515580e+000	-1.809654e+001	0.0	-6.180340e+000	-1.902113e+001	0.0	-3.747620e+000	-1.964575e+001	0.0	-1.255810e+000	-1.996053e+001	0.0	1.255810e+000	-1.996053e+001	0.0	3.747630e+000	-1.964574e+001	0.0	6.180340e+000	-1.902113e+001	0.0	8.515590e+000	-1.809654e+001	0.0	1.071654e+001	-1.688656e+001	0.0	1.274848e+001	-1.541026e+001	0.0	1.457937e+001	-1.369094e+001	0.0	1.618034e+001	-1.175570e+001	0.0	1.752614e+001	-9.635070e+000	0.0	1.859553e+001	-7.362490e+000	0.0	1.937166e+001	-4.973790e+000	0.0	1.984229e+001	-2.506660e+000	0.0	2.000000e+001	0.000000e+000	0.0	6.071847e-002	-4.599300e-002	0.0	6.602584e-001	-5.397924e-002	0.0	4.259462e-001	7.123173e-002	0.0	6.898893e-001	5.084802e-002	0.0	3.793152e-001	-7.273116e-002	0.0	9.994604e-001	-7.202256e-004	0.0	9.985440e-001	-1.312423e-003	0.0	7.737237e-001	-4.090969e-002	0.0	6.898893e-001	-5.084802e-002	0.0	-1.456769e-003	6.464601e-003	0.0	7.467285e-001	-4.428984e-002	0.0	5.836398e-001	6.115854e-002	0.0	9.927702e-001	-3.577733e-003	0.0	9.898650e-001	-4.450375e-003	0.0	5.991925e-001	5.980916e-002	0.0	7.187526e-001	-4.760665e-002	0.0	-1.597618e-003	7.671995e-004	0.0	9.864674e-001	-5.394793e-003	0.0	9.825871e-001	-6.398977e-003	0.0	-1.456774e-003	-6.464600e-003	0.0	6.451948e-001	-5.549610e-002	0.0	8.243215e-001	-3.409983e-002	0.0	7.996157e-001	-3.751255e-002	0.0	3.487901e-001	7.326090e-002	0.0	8.477112e-001	-3.071909e-002	0.0	2.474256e-001	7.182160e-002	0.0	8.697233e-001	-2.738134e-002	0.0	9.916188e-003	2.185203e-002	0.0	8.902508e-001	-2.411717e-002	0.0	7.700293e-002	-5.054436e-002	0.0	9.092206e-001	-2.095307e-002	0.0	-1.944578e-003	-3.190372e-003	0.0	9.421664e-001	-1.502079e-002	0.0	9.265514e-001	-1.791177e-002	0.0	1.789678e-002	-2.766280e-002	0.0	4.259462e-001	-7.123173e-002	0.0	8.588986e-001	-2.904064e-002	0.0	9.560213e-001	-1.230722e-002	0.0	9.782180e-001	-7.479396e-003	0.0	9.680592e-001	-9.783205e-003	0.0	1.582863e-001	-6.490557e-002	0.0	8.999374e-001	-2.252139e-002	0.0	7.603588e-001	-4.260503e-002	0.0	9.971186e-001	-2.046344e-003	0.0	5.991925e-001	-5.980916e-002	0.0	4.416505e-001	-7.055456e-002	0.0	5.365104e-001	-6.487405e-002	0.0	4.732224e-001	-6.895566e-002	0.0	5.048788e-001	-6.705339e-002	0.0	4.890394e-001	-6.804024e-002	0.0	1.249513e-001	-6.028257e-002	0.0	2.780447e-002	-3.325805e-002	0.0	3.947663e-001	-7.232395e-002	0.0	4.619013e-002	-4.112
[...]
POINT_DATA 5233
SCALARS Density float 1
LOOKUP_TABLE default
1.16502113834208e+00	1.13671496017380e+00	1.11768052183618e+00	1.09997134570336e+00	1.08365294512449e+00	1.07032882136662e+00	1.06233441010634e+00	1.06133079406056e+00	1.06664062870151e+00	1.07587502066440e+00	1.08596130704365e+00	1.09407914689806e+00	1.09899284724911e+00	1.10017060401896e+00	1.09724991431423e+00	1.09060521697411e+00	1.08125021886099e+00	1.07048057993985e+00	1.05965779339353e+00	1.04977724741712e+00	1.04115729277163e+00	1.03359062160549e+00	1.02661409432793e+00	1.01983901727064e+00	1.01299550241479e+00	1.00605864256393e+00	9.99160512166117e-01	9.92500702043707e-01	9.86310887144451e-01	9.80846649108824e-01	9.76087546454727e-01	9.71425844344543e-01	9.66218784455688e-01	9.61434091769884e-01	9.57297402984836e-01	9.54139676822942e-01	9.51498060982296e-01	9.49816181128207e-01	9.50866836484681e-01	9.56701288408882e-01	9.63162440513710e-01	9.68114058896284e-01	9.71993454868171e-01	9.72625071108054e-01	9.73075117180216e-01	9.75453793807942e-01	9.75268594848894e-01	9.72196174260765e-01	9.69462115948405e-01	9.61768481598705e-01	9.48761458581677e-01	9.36505936282186e-01	9.30002466958234e-01	9.28415706823983e-01	9.26355490782671e-01	9.11122017420604e-01	8.84355196588652e-01	8.61478839906726e-01	8.49052984537375e-01	8.40804057278107e-01	8.22623312477168e-01	8.00164669570703e-01	7.87430904849534e-01	7.83171811643929e-01	7.82303623587161e-01	7.81251642462762e-01	7.79774167269684e-01	7.79342451090386e-01	7.81065735652947e-01	7.84673893459745e-01	7.89445917697075e-01	7.95103766894390e-01	8.01602732305083e-01	8.08774418094779e-01	8.16492370875122e-01	8.24765940274830e-01	8.33802678722492e-01	8.43776338954898e-01	8.54562638885262e-01	8.66081342067036e-01	8.78373947255931e-01	8.91440279361428e-01	9.05374923358772e-01	9.20213854239631e-01	9.36065894187900e-01	9.53106300355055e-01	9.71446740661354e-01	9.91315044506879e-01	1.01303865806430e+00	1.03682565642962e+00	1.06317683417968e+00	1.09264494614529e+00	1.12551048658034e+00	1.16235764439210e+00	1.20313527342042e+00	1.24676708173516e+00	1.28880872274915e+00	1.33195715059638e+00	1.35038461111775e+00	1.35255028740526e+00	1.35675787546964e+00	1.34378521714097e+00	1.30628283344354e+00	1.25983969954286e+00	1.20150532290708e+00	1.13973792125273e+00	1.07936593373397e+00	1.02318776748485e+00	9.72270174276186e-01	9.27114719978527e-01	8.87340919329582e-01	8.52180368168140e-01	8.21226066545726e-01	7.93807840819086e-01	7.69521079736794e-01	7.48174799441045e-01	7.29338050615495e-01	7.12526795058465e-01	6.97451020286224e-01	6.83831814892489e-01	6.71568567624828e-01	6.60798512301979e-01	6.51655396567863e-01	6.43833702184594e-01	6.36866552571051e-01	6.30457878988760e-01	6.24976544775923e-01	6.20566458111094e-01	6.17003679511648e-01	6.13847982677989e-01	6.11066091815337e-01	6.08884633764409e-01	6.07620901052922e-01	6.07316421008656e-01	6.07879070858591e-01	6.09097000795327e-01	6.10768031000720e-01	6.12744421896393e-01	6.14856417378786e-01	6.16927720814149e-01	6.18697917001691e-01	6.20294692514269e-01	6.23398239967024e-01	6.29350248093381e-01	6.35177944338353e-01	6.38768554226328e-01	6.44323796059624e-01	6.54789889543908e-01	6.70582523476843e-01	6.93907983592505e-01	7.12031916540386e-01	7.19094525593132e-01	7.10498103776714e-01	6.77683208118400e-01	6.28730782680100e-01	5.86332102037867e-01	5.57654709614295e-01	5.45339459772456e-01	5.65573540780170e-01	6.21224209020671e-01	6.99064907112675e-01	7.92128820414925e-01	8.80736850658866e-01	9.43698694149978e-01	9.65232780002493e-01	9.66913401475813e-01	9.72258902553154e-01	9.79430687565564e-01	9.86437273764348e-01	9.96855443592986e-01	1.00707593878446e+00	1.01538858570405e+00	1.02294656142014e+00	1.02966335957719e+00	1.03550753039812e+00	1.04045512655515e+00	1.04460443734012e+00	1.04832776658543e+00	1.05220704838679e+00	1.05693581929054e+00	1.06297591930991e+00	1.07031380085127e+00	1.07823729285718e+00	1.08551743020367e+00	1.09077339311067e+00	1.09281217165765e+00	1.09094995716466e+00	1.08539915558444e+00	1.07721925220270e+00	1.06796319824650e+00	1.05978132257253e+00	1.05513480852847e+00	1.05599244982559e+00	1.06276218941694e+00	1.07393698002511e+00	1.08781063047403e+00	1.10278103653941e+00	1.11961896782844e+00	1.13668212330701e+00	1.13468210452477e+00	9.98575264474943e-01	9.99569522289658e-01	9.99653243288204e-01	9.99475140647090e-01	9.99347385489491e-01	9.99187797205206e-01	9.99000708100031e-01	9.98770393620885e-01	9.98522079133546e-01	9.98355431104004e-01	9.98272077120864e-01	9.98378943303527e-01	9.98626621431402e-01	9.99085365230020e-01	9.99468128678187e-01	9.99781652614762e-01	9.99962208558637e-01	1.00007881836332e+00	1.00015643679036e+00	1.00019453206883e+00	1.00021928528341e+00	1.00023145216656e+00	1.00024215986921e+00	1.00025428241762e+00	1.00026435600149e+00	1.00027896975146e+00	1.00030358711619e+00	1.00033482280552e+00	1.00037778219645e+00	1.00044320320602e+00	1.00051693868649e+00	1.00063933213964e+00	1.00076020613256e+00	1.00096837081583e+00	1.00116676950156e+00	1.00141785102573e+00	1.00168779685854e+00	1.00180589225363e+00	1.00184679463375e+00	1.00171043860903e+00	1.00155154720573e+00	1.00131848363070e+00	1.00110237807810e+00	1.00089096661930e+00	1.00070259625727e+00	1.00047850287463e+00	1.00029985566335e+00	1.00030755834503e+00	9.99279169125651e-01	9.97906220176785e-01	9.28862327819074e-01	9.54754703645167e-01	6.38700529382890e-01	8.47160409971681e-01	8.73108496098525e-01	1.14189594245940e+00	1.12739334728920e+00	9.76859655994678e-01	9.52730664655463e-01	1.32066147731984e+00	9.66615937383248e-01	6.07862040412163e-01	1.08280667907764e+00	1.07339744257528e+00	5.74772761559295e-01	9.58204637163522e-01	1.35008337503052e+00	1.06868699676932e+00	1.06913431941888e+00	1.31735423359622e+00	9.62019880289182e-01	9.98147132093061e-01	9.86238337426066e-01	6.19521193956194e-01	1.01135547044587e+00	6.12553649660605e-01	1.02466332523693e+00	1.08893484484385e+00	1.03851022444663e+00	8.99397272076320e-01	1.05498359530249e+00	1.34145829096289e+00	1.08872595401711e+00	1.07377487942559e+00	1.07508705304018e+00	9.30796954100698e-01	1.01802910002513e+00	1.09293583799801e+00	1.07354695410100e+00	1.08615526784869e+00	8.15206508735106e-01	1.04631767938126e+00	9.71854728144001e-01	1.11045874037758e+00	9.74140844364101e-01	9.30217348048043e-01	9.74570912044193e-01	9.42820597990805e-01	9.68403126865740e-01	9.56989554116343e-01	8.40776789957470e-01	1.02413115916499e+00	9.00039800984237e-01	9.62605172366606e-01	9.25179268472014e-01	8.13274437577570e-01	8.49409888479342e-01	1.00190421382462e+00	7.89349042208370e-01	1.08225583298303e+00	8.23155829782005e-01	7.95606770130125e-01	8.86050351357517e-01	8.61732401279490e-01	9.75494670091363e-01	8.07861791055432e-01	9.71734061027033e-01	1.03140519495398e+00	1.04840451764434e+00	1.09568286298386e+00	1.17192539571363e+00	9.89650863236130e-01	1.06434257862962e+00	1.09238724493490e+00	1.07996923650157e+00	1.28778626599228e+00	1.00468629747853e+00	7.86947820047933e-01	9.77518977300077e-01	9.62092661130985e-01	9.81320902659848e-01	8.50789435445395e-01	7.87336265105851e-01	9.73120478878271e-01	9.51538636913225e-01	9.45142212763603e-01	1.20955840646903e+00	1.10442911497085e+00	8.56463297940887e-01	8.01313715548487e-01	1.18015481136708e+00	7.86188700217665e-01	8.73514059887617e-01	7.95833462840254e-01	7.88224274948067e-01	9.33287064287458e-01	9.55292212296948e-01	1.34674332609814e+00	1.28581451622275e+00	7.23418042106603e-01	1.34803254917804e+00	9.06645471988724e-01	7.86589237626416e-01	8.39761649998022e-01	6.72025093339349e-01	6.33919194379214e-01	1.09710572951855e+00	7.22007618180444e-01	6.62596100038495e-01	1.07243594892936e+00	1.08382996140881e+00	1.05145476661424e+00	6.84360620163481e-01	6.41546285359577e-01	6.22551831279267e-01	1.07351654099925e+00	1.06096150985614e+00	7.26861957135522e-01	1.06655158750650e+00	1.08690404472840e+00	1.08458427040814e+00	6.96367103478967e-01	7.64378017946736e-01	6.13054279759987e-01	6.11946370534624e-01	6.32877076960834e-01	6.16040873474942e-01	6.50709908241631e-01	6.26928815839141e-01	6.45840697321285e-01	6.62242057817209e-01	5.52361030444246e-01	6.23641272534034e-01	6.16606702422275e-01	6.62541202245139e-01	6.58776814094790e-01	9.73789214375469e-01	9.69173382255962e-01	1.00584650609471e+00	9.86887935323276e-01	1.03373348600355e+00	1.02116704259251e+00	1.05581053423849e+00	1.04347732561767e+00	1.08716702051069e+00	1.06699482138338e+00	1.07864327385138e+00	1.03894443980681e+00	1.04751125772421e+00	1.01387066624881e+00	1.02783445933953e+00	9.81016927938256e-01	9.94714973788779e-01	9.30619438548359e-01	9.71964092066972e-01	5.94913297010875e-01	7.55361398372621e-01	7.04166586803385e-01	5.51764185796648e-01	6.19876149667954e-01	6.14141632245671e-01	6.38870987668103e-01	6.27939744916605e-01	8.11593651036048e-01	6.53703851475663e-01	1.03749800147455e+00	8.71368390176904e-01	7.90786563798910e-01	1.19526819045794e+00	1.09066640748078e+00	9.91907350888976e-01	8.38527714840129e-01	9.72350276633603e-01	1.24543822394044e+00	9.45961796792200e-01	1.14224002534221e+00	7.10874941680425e-01	7.44579819879036e-01	6.12162081396751e-01	6.83385598137738e-01	1.06262230522993e+00	1.06220269263224e+00	6.14401838701528e-01	1.06615091778744e+00	1.07394067177665e+00	6.17844614865095e-01	6.20913800031850e-01	1.07972342860834e+00	1.14900365011639e+00	1.11136310305460e+00	1.12489245868594e+00	9.67268645111267e-01	9.81466850978695e-01	1.08464262186028e+00	7.08930359701345e-01	1.24862957329088e+00	1.13677283996145e+00	9.13637020757250e-01	8.31629663201533e-01	7.88239395845883e-01	7.61880287041083e-01	1.29766677138292e+00	1.32655305619086e+00	7.95046752007616e-01	9.56806518179480e-01	1.05901706018163e+00	1.17049726770384e+00	6.34786866757694e-01	9.54653731207216e-01	9.82045525304291e-01	1.07674941682957e+00	8.31713133806456e-01	1.01650800945931e+00	1.00379430507744e+00	8.94389202059586e-01	1.29882175974215e+00	7.98438829664174e-01	1.10887150581380e+00	1.08653856880797e+00	8.30920076229863e-01	9.59667171050306e-01	9.60135188132127e-01	9.33047603851669e-01	9.07854501918350e-01	8.89980988648221e-01	1.04330554885638e+00	9.86623669164219e-01	1.13609955019919e+00	1.00038733177749e+00	7.15807901408616e-01	1.03197269827704e+00	6.97832601003382e-01	8.11094432971185e-01	6.49493124681390e-01	1.04632376177048e+00	1.06943950259910e+00	6.21261359177951e-01	7.19519986281232e-01	1.08254252081666e+00	1.05040396364650e+00	1.07415376173245e+00	1.08145491181224e+00	1.06834395605621e+00	6.21305797155113e-01	6.20056143071474e-01	6.24054689358973e-01	7.11325098100835e-01	9.54518638184446e-01	8.03186232488623e-01	1.08934215146689e+00	6.65581424475537e-01	8.30144738594457e-01	1.07504785291974e+00	1.08176270572508e+00	1.05457474071566e+00	8.22746764612622e-01	1.16677435216398e+00	1.10201227784824e+00	1.09113339065283e+00	1.18219712982952e+00	1.26600310776089e+00	1.20368676278620e+00	1.33933525415368e+00	1.34306275997100e+00	1.08111841942815e+00	1.18022654535966e+00	9.37439774431756e-01	1.11662534312109e+00	1.09211666744882e+00	6.38011287747675e-01	9.77618961248401e-01	1.07408882667800e+00	1.02941763618440e+00	5.95577348451971e-01	1.08279476235943e+00	1.32499613927139e+00	9.31217883662201e-01	6.32348019485534e-01	1.01011199178450e+00	6.17970742490404e-01	1.02292085204030e+00	1.03613893318231e+00	9.22172734335505e-01	1.05095237047455e+00	1.06708904152893e+00	1.08470738558481e+00	1.03206253312207e+00	1.08664512810640e+00	1.08472681237756e+00	1.07485483572958e+00	8.48903708454086e-01	9.72457136502089e-01	9.77557279778102e-01	1.10362216181044e+00	9.39196031025030e-01	9.51754048607258e-01	9.64639070486768e-01	1.05570726564130e+00	9.16849930050401e-01	9.30946761095754e-01	8.48932078693334e-01	9.90035766421162e-01	1.07451367223659e+00	1.08058271529708e+00	8.39658914900008e-01	8.81714474235094e-01	9.77667711068741e-01	9.74493016565200e-01	1.08156152804973e+00	1.07781197790325e+00	9.63080356932990e-01	9.67588534986648e-01	8.69913849559353e-01	8.58964577966548e-01	9.75176390970841e-01	9.74905247337313e-01	9.71329517829025e-01	9.53830905452755e-01	1.13858001204761e+00	8.55332182760460e-01	8.67399352020470e-01	8.15425578690924e-01	8.08940924680391e-01	7.95501397558279e-01	7.94812190712134e-01	7.97905826829430e-01	8.09430588755767e-01	7.95286170503765e-01	1.34209983462212e+00	1.23787676363194e+00	8.57932602587810e-01	1.06743659598973e+00	7.29074426113983e-01	7.01475099999053e-01	6.73950990615501e-01	6.58395276862712e-01	1.07125211774859e+00	1.07874417011324e+00	1.06945005005310e+00	6.46319007183431e-01	6.41338229870430e-01	6.26220710800357e-01	1.06415524281602e+00	1.08164097160839e+00	7.82274769442168e-01	8.04975670912064e-01	6.19447047871372e-01	6.18309424991009e-01	6.56940750354703e-01	6.75524960531174e-01	6.86075388103975e-01	1.00434054188390e+00	9.75989417005363e-01	9.76617758345877e-01	9.93550028451235e-01	1.02615322671621e+00	1.05912176679000e+00	1.04200961109994e+00	1.03723525383062e+00	1.01959438269751e+00	1.01281826590396e+00	9.88876121040143e-01	9.82124834099757e-01	9.61538861888831e-01	9.02619091116540e-01	6.34220478086626e-01	5.74930469590616e-01	6.88830165195142e-01	7.21160452831924e-01	5.54018626184820e-01	5.66506757224879e-01	6.27551493195451e-01	6.32040788913772e-01	6.37207649183386e-01	6.43110023818849e-01	1.04385209835981e+00	8.88782313170982e-01	9.22961102013348e-01	9.91844521171493e-01	9.97654946201439e-01	9.72169132180188e-01	9.73531262288514e-01	1.22655400719053e+00	9.60176699612599e-01	7.26536925177520e-01	7.43378457061305e-01	6.18958064568600e-01	6.18215715005227e-01	6.23484446520667e-01	6.22322111868801e-01	1.07883506775096e+00	1.07455542008087e+00	9.70982383865141e-01	9.66244629744089e-01	1.01018651277555e+00	1.27059323155163e+00	7.95400824193730e-01	1.30562820445888e+00	9.06047978240805e-01	8.02966187756049e-01	9.87596077009923e-01	9.76448461633887e-01	1.06165510213260e+00	1.07511749286918e+00	1.07186630450276e+00	1.07742171167861e+00	1.21149310372002e+00	1.08081406739329e+00	1.11319961843866e+00	1.12909534545071e+00	1.10884297447510e+00	1.15857594056737e+00	1.08655341555566e+00	1.32332089874947e+00	9.03528251197627e-01	1.06822193466094e+00	1.08359468400302e+00	6.66670789614172e-01	1.13085107762516e+00	1.19811540416820e+00	9.61480429675373e-01	1.25659894407242e+00	9.64704051409855e-01	1.11220868737603e+00	1.02765591969861e+00	1.16845068201536e+00	8.46233362658305e-01	1.02147436434476e+00	9.58835652022474e-01	1.09078533481183e+00	1.13980770949687e+00	1.07129763739110e+00	7.29678162259037e-01	1.07853884052914e+00	6.81251830414734e-01	1.08754759068351e+00	7.15234988584421e-01	6.25249295343353e-01	6.24261650083855e-01	6.69679425755585e-01	8.01192501381244e-01	1.12285128658871e+00	1.27932042152979e+00	1.27395071945977e+00	1.05066154834501e+00	1.30419686829576e+00	1.08188310429974e+00	9.17007736356565e-01	1.33695533244066e+00	8.39094198020347e-01	9.37553629872011e-01	1.06239500107058e+00	1.13246416068027e+00	1.03048191130245e+00	1.00285804212503e+00	7.80494105698101e-01	1.07065963152327e+00	1.07859840758435e+00	1.05302239044150e+00	1.04895161421798e+00	6.23822270800788e-01	6.24134126490503e-01	6.32467861193810e-01	7.27918252795782e-01	9.58844015781290e-01	9.57021342272490e-01	8.11364238409613e-01	1.09154545309547e+00	6.78507900880758e-01	1.07314505636980e+00	1.09492364020732e+00	1.17292453265924e+00	1.24673570092403e+00	1.22780115444287e+00	1.32145452221005e+00	1.03948342807524e+00	1.15081846284116e+00	1.13937141660688e+00	1.08071008447261e+00	1.07916953234066e+00	6.17567072166461e-01	9.33581433286182e-01	6.37609761433124e-01	1.00925682482398e+00	1.01534511466168e+00	1.03397975512324e+00	1.04060363268426e+00	9.46555205790995e-01	9.31349548449714e-01	1.04744446728098e+00	1.05459585975272e+00	1.08084206372973e+00	1.08201610084071e+00	1.07722925801927e+00	9.78546340729651e-01	9.83177023563699e-01	1.09968732160586e+00	9.46407953651641e-01	9.59870966359472e-01	9.28431836450710e-01	9.33251770339498e-01	1.01836871854885e+00	1.07388963174179e+00	1.07813265573104e+00	8.57818300371613e-01	8.48230661142346e-01	9.79039680126785e-01	9.77699903588313e-01	1.07895297201820e+00	1.07745980377882e+00	9.68843435733544e-01	9.73565045935584e-01	8.90858510752052e-01	8.78800990174066e-01	8.67760902792186e-01	9.75955070811261e-01	9.76211837371349e-01	9.98879039030947e-01	9.80356188669174e-01	9.62838071523283e-01	8.56063271497105e-01	8.63996129378037e-01	8.81052359008645e-01	8.30991702002539e-01	8.23783293615480e-01	8.17220470366736e-01	8.06800205790209e-01	8.04240878919708e-01	8.08704668606335e-01	8.24485075446300e-01	8.03578777278946e-01	8.76861246629510e-01	6.89330081117616e-01	6.65939829313473e-01	1.07539782539744e+00	6.53737467458813e-01	6.44659311162436e-01	6.41425224802060e-01	6.31069342156163e-01	1.06608520497394e+00	8.24213262754399e-01	8.49517064253707e-01	6.26899541900672e-01	6.29444781681373e-01	6.88991886053191e-01	7.01417890301585e-01	7.14310526471746e-01	9.80284167132503e-01	1.06162744415445e+00	1.05719829685565e+00	1.04480385685094e+00	1.04042104094014e+00	1.03575051795322e+00	1.02474439384910e+00	1.01851893427421e+00	1.01211441646161e+00	9.94813814773741e-01	9.90959796548832e-01	9.83924262363952e-01	9.79672353526445e-01	9.48667520927946e-01	8.72467583176084e-01	6.11762125136786e-01	7.14569778447151e-01	7.32627306770284e-01	5.65306219151493e-01	5.63944451037013e-01	5.85008758763708e-01	6.36415321097736e-01	6.41050618623166e-01	6.47080436764806e-01	6.53929485409235e-01	6.61699179454913e-01	9.06443351989431e-01	9.39033567959022e-01	9.92373975406703e-01	9.97711608627697e-01	1.00332957688558e+00	9.70503547139265e-01	9.73606614192108e-01	9.74476898894156e-01	1.01154637441826e+00	7.43491658837799e-01	7.61077764587538e-01	7.80263317773672e-01	6.23750650189157e-01	6.27009783588560e-01	6.25664795312872e-01	6.24918182384780e-01	1.07704524876804e+00	1.07423592995359e+00	1.07046890551816e+00	9.74062446063536e-01	9.70156709593622e-01	9.65196150923829e-01	8.03444056986371e-01	8.02719370641561e-01	1.28599284883925e+00	9.13031101257062e-01	1.09030818010595e+00	1.07253068914170e+00	9.78870910239769e-01	1.30338025545807e+00	1.11826158983292e+00	1.06301814824505e+00	1.06820466093878e+00	1.04558061530550e+00	1.07947857019046e+00	7.09284034515544e-01	1.26178018393820e+00	1.09184572960458e+00	1.19001996019611e+00	1.07539083908738e+00	1.08446734957131e+00	1.25312984996168e+00	6.55685815502167e-01	1.22789650925255e+00	1.13200727141982e+00	1.15484141293728e+00	9.92977983195934e-01	8.48785501398993e-01	1.09033624652450e+00	9.21244144247930e-01	9.26497846792522e-01	9.37581704672008e-01	8.13967533216697e-01	1.07342681827260e+00	7.01604878828282e-01	1.07545222380203e+00	1.07466978867784e+00	1.00127823634374e+00	6.94446921083445e-01	6.36644086982809e-01	1.08401642688605e+00	8.43014576432091e-01	1.02649623497293e+00	1.10286502937230e+00	1.07573675098665e+00	1.10347262772042e+00	1.07852667046721e+00	1.11361205519828e+00	9.63110568818904e-01	1.21620477482981e+00	9.66841367156627e-01	9.70161094805874e-01	1.13865345332059e+00	1.08932677799109e+00	1.16433950756496e+00	1.02864597302532e+00	7.26875101968428e-01	6.30724162442721e-01	1.28161074752463e+00	1.12775176732483e+00	7.46709824841993e-01	1.05109824978977e+00	6.30164351043346e-01	6.32225998899893e-01	6.33848524535476e-01	9.59844596277181e-01	9.61101269163248e-01	1.07274361657581e+00	1.16251692243285e+00	1.19659477507256e+00	1.24129367384243e+00	1.30301379379135e+00	1.06738673928841e+00	1.07874216368829e+00	1.08056859736029e+00	6.41739943384209e-01	1.01478286849880e+00	1.02054798403368e+00	1.03247412549936e+00	1.03850116330005e+00	9.55602631582720e-01	9.40635264485693e-01	1.04469523026480e+00	1.05100565881947e+00	1.05717941923307e+00	1.07740481748298e+00	1.07847679786501e+00	9.83988078378321e-01	9.88842835506849e-01	1.09600839595491e+00	9.43698381350283e-01	9.55007722245519e-01	9.33784258051841e-01	9.34976316312631e-01	1.07245007631218e+00	1.07541014622766e+00	8.67818543108054e-01	8.57479204034277e-01	9.79661826815420e-01	1.07831499674374e+00	1.07879018396428e+00	9.74995714417887e-01	9.80202108621474e-01	9.00281170623714e-01	8.88485333925437e-01	8.77990679009367e-01	9.77823370