# vtk DataFile Version 3.0
vtk output
ASCII
DATASET UNSTRUCTURED_GRID
POINTS 5233 float
9.997500e-001	-3.632877e-005	0.0	9.990000e-001	-1.452413e-004	0.0	9.977600e-001	-3.249673e-004	0.0	9.960200e-001	-5.761575e-004	0.0	9.937800e-001	-8.970461e-004	0.0	9.910500e-001	-1.282580e-003	0.0	9.878400e-001	-1.724589e-003	0.0	9.841300e-001	-2.214082e-003	0.0	9.799500e-001	-2.729083e-003	0.0	9.752800e-001	-3.247562e-003	0.0	9.701500e-001	-3.737702e-003	0.0	9.645400e-001	-4.174061e-003	0.0	9.584700e-001	-4.535780e-003	0.0	9.519400e-001	-4.819125e-003	0.0	9.449600e-001	-5.039555e-003	0.0	9.375400e-001	-5.232428e-003	0.0	9.296900e-001	-5.448339e-003	0.0	9.214000e-001	-5.746257e-003	0.0	9.127000e-001	-6.183072e-003	0.0	9.035800e-001	-6.808992e-003	0.0	8.940600e-001	-7.658857e-003	0.0	8.841500e-001	-8.751110e-003	0.0	8.738500e-001	-1.008844e-002	0.0	8.631800e-001	-1.165541e-002	0.0	8.521600e-001	-1.342300e-002	0.0	8.407700e-001	-1.535909e-002	0.0	8.290500e-001	-1.741527e-002	0.0	8.170100e-001	-1.954469e-002	0.0	8.046400e-001	-2.170373e-002	0.0	7.919700e-001	-2.384374e-002	0.0	7.790100e-001	-2.592379e-002	0.0	7.657800e-001	-2.790735e-002	0.0	7.522800e-001	-2.976806e-002	0.0	7.385200e-001	-3.148572e-002	0.0	7.245300e-001	-3.304622e-002	0.0	7.103200e-001	-3.444633e-002	0.0	6.958900e-001	-3.569109e-002	0.0	6.812700e-001	-3.678952e-002	0.0	6.664700e-001	-3.775801e-002	0.0	6.515000e-001	-3.861680e-002	0.0	6.363800e-001	-3.938817e-002	0.0	6.211300e-001	-4.009564e-002	0.0	6.057600e-001	-4.076298e-002	0.0	5.902800e-001	-4.141246e-002	0.0	5.747100e-001	-4.206358e-002	0.0	5.590600e-001	-4.273312e-002	0.0	5.433600e-001	-4.343337e-002	0.0	5.276100e-001	-4.417396e-002	0.0	5.118400e-001	-4.495918e-002	0.0	4.960500e-001	-4.579083e-002	0.0	4.802700e-001	-4.666558e-002	0.0	4.645100e-001	-4.757780e-002	0.0	4.487800e-001	-4.851912e-002	0.0	4.331100e-001	-4.947764e-002	0.0	4.175000e-001	-5.044148e-002	0.0	4.019700e-001	-5.139627e-002	0.0	3.865400e-001	-5.232689e-002	0.0	3.712300e-001	-5.321798e-002	0.0	3.560400e-001	-5.405546e-002	0.0	3.409900e-001	-5.482458e-002	0.0	3.261100e-001	-5.551102e-002	0.0	3.114000e-001	-5.610304e-002	0.0	2.968700e-001	-5.658951e-002	0.0	2.825500e-001	-5.696009e-002	0.0	2.684500e-001	-5.720673e-002	0.0	2.545700e-001	-5.732283e-002	0.0	2.409400e-001	-5.730294e-002	0.0	2.275700e-001	-5.714345e-002	0.0	2.144700e-001	-5.684202e-002	0.0	2.016600e-001	-5.639794e-002	0.0	1.891400e-001	-5.581106e-002	0.0	1.769300e-001	-5.508302e-002	0.0	1.650400e-001	-5.421614e-002	0.0	1.534900e-001	-5.321445e-002	0.0	1.422900e-001	-5.208222e-002	0.0	1.314400e-001	-5.082313e-002	0.0	1.209500e-001	-4.944216e-002	0.0	1.108500e-001	-4.794790e-002	0.0	1.011300e-001	-4.634374e-002	0.0	9.181000e-002	-4.463783e-002	0.0	8.290000e-002	-4.283726e-002	0.0	7.440000e-002	-4.094713e-002	0.0	6.633000e-002	-3.897710e-002	0.0	5.869000e-002	-3.693246e-002	0.0	5.149000e-002	-3.482090e-002	0.0	4.474000e-002	-3.265047e-002	0.0	3.844000e-002	-3.042590e-002	0.0	3.260000e-002	-2.815506e-002	0.0	2.723000e-002	-2.584627e-002	0.0	2.232000e-002	-2.349844e-002	0.0	1.790000e-002	-2.112929e-002	0.0	1.395000e-002	-1.873065e-002	0.0	1.049000e-002	-1.631547e-002	0.0	7.520000e-003	-1.388485e-002	0.0	5.040000e-003	-1.143740e-002	0.0	3.050000e-003	-8.967492e-003	0.0	1.560000e-003	-6.480774e-003	0.0	5.600000e-004	-3.941929e-003	0.0	6.000000e-005	-1.323928e-003	0.0	0.000000e+000	0.000000e+000	0.0	6.000000e-005	1.518892e-003	0.0	5.600000e-004	4.860342e-003	0.0	1.560000e-003	8.290806e-003	0.0	3.050000e-003	1.172231e-002	0.0	5.040000e-003	1.513711e-002	0.0	7.520000e-003	1.848480e-002	0.0	1.049000e-002	2.174433e-002	0.0	1.395000e-002	2.489792e-002	0.0	1.790000e-002	2.793106e-002	0.0	2.232000e-002	3.082005e-002	0.0	2.723000e-002	3.357139e-002	0.0	3.260000e-002	3.616409e-002	0.0	3.844000e-002	3.860227e-002	0.0	4.474000e-002	4.088164e-002	0.0	5.149000e-002	4.300080e-002	0.0	5.869000e-002	4.496307e-002	0.0	6.633000e-002	4.676992e-002	0.0	7.440000e-002	4.842443e-002	0.0	8.290000e-002	4.993251e-002	0.0	9.181000e-002	5.129718e-002	0.0	1.011300e-001	5.252551e-002	0.0	1.108500e-001	5.362323e-002	0.0	1.209500e-001	5.459553e-002	0.0	1.314400e-001	5.545065e-002	0.0	1.422900e-001	5.619334e-002	0.0	1.534900e-001	5.683038e-002	0.0	1.650400e-001	5.736888e-002	0.0	1.769300e-001	5.781516e-002	0.0	1.891400e-001	5.817526e-002	0.0	2.016600e-001	5.845564e-002	0.0	2.144700e-001	5.866256e-002	0.0	2.275700e-001	5.880258e-002	0.0	2.409400e-001	5.888197e-002	0.0	2.545700e-001	5.890711e-002	0.0	2.684500e-001	5.888431e-002	0.0	2.825500e-001	5.881993e-002	0.0	2.968700e-001	5.872009e-002	0.0	3.114000e-001	5.859069e-002	0.0	3.261100e-001	5.843750e-002	0.0	3.409900e-001	5.826565e-002	0.0	3.560400e-001	5.807952e-002	0.0	3.712300e-001	5.788305e-002	0.0	3.865400e-001	5.767911e-002	0.0	4.019700e-001	5.746913e-002	0.0	4.175000e-001	5.725349e-002	0.0	4.331100e-001	5.703104e-002	0.0	4.487800e-001	5.679903e-002	0.0	4.645100e-001	5.655263e-002	0.0	4.802700e-001	5.628562e-002	0.0	4.960500e-001	5.598962e-002	0.0	5.118400e-001	5.565435e-002	0.0	5.276100e-001	5.526816e-002	0.0	5.433600e-001	5.481711e-002	0.0	5.590600e-001	5.428663e-002	0.0	5.747100e-001	5.366007e-002	0.0	5.902800e-001	5.292120e-002	0.0	6.057600e-001	5.205283e-002	0.0	6.211300e-001	5.103872e-002	0.0	6.363800e-001	4.986314e-002	0.0	6.515000e-001	4.851206e-002	0.0	6.664700e-001	4.697504e-002	0.0	6.812700e-001	4.524566e-002	0.0	6.958900e-001	4.332097e-002	0.0	7.103200e-001	4.120322e-002	0.0	7.245300e-001	3.890382e-002	0.0	7.385200e-001	3.643618e-002	0.0	7.522800e-001	3.382162e-002	0.0	7.657800e-001	3.109211e-002	0.0	7.790100e-001	2.828217e-002	0.0	7.919700e-001	2.542937e-002	0.0	8.046400e-001	2.258002e-002	0.0	8.170100e-001	1.978156e-002	0.0	8.290500e-001	1.708761e-002	0.0	8.407700e-001	1.454277e-002	0.0	8.521600e-001	1.219413e-002	0.0	8.631800e-001	1.008964e-002	0.0	8.738500e-001	8.257452e-003	0.0	8.841500e-001	6.722484e-003	0.0	8.940600e-001	5.494492e-003	0.0	9.035800e-001	4.564033e-003	0.0	9.127000e-001	3.906524e-003	0.0	9.214000e-001	3.482914e-003	0.0	9.296900e-001	3.242181e-003	0.0	9.375400e-001	3.129898e-003	0.0	9.449600e-001	3.091450e-003	0.0	9.519400e-001	3.078024e-003	0.0	9.584700e-001	3.048820e-003	0.0	9.645400e-001	2.972805e-003	0.0	9.701500e-001	2.829707e-003	0.0	9.752800e-001	2.611933e-003	0.0	9.799500e-001	2.322760e-003	0.0	9.841300e-001	1.979741e-003	0.0	9.878400e-001	1.605340e-003	0.0	9.910500e-001	1.230202e-003	0.0	9.937800e-001	8.781168e-004	0.0	9.960200e-001	5.709227e-004	0.0	9.977600e-001	3.239984e-004	0.0	9.990000e-001	1.451530e-004	0.0	9.997500e-001	3.632738e-005	0.0	1.000000e+000	0.000000e+000	0.0	1.984229e+001	2.506660e+000	0.0	1.937166e+001	4.973800e+000	0.0	1.859553e+001	7.362490e+000	0.0	1.752613e+001	9.635070e+000	0.0	1.618034e+001	1.175571e+001	0.0	1.457937e+001	1.369094e+001	0.0	1.274848e+001	1.541027e+001	0.0	1.071654e+001	1.688656e+001	0.0	8.515590e+000	1.809654e+001	0.0	6.180340e+000	1.902113e+001	0.0	3.747630e+000	1.964575e+001	0.0	1.255810e+000	1.996053e+001	0.0	-1.255810e+000	1.996053e+001	0.0	-3.747630e+000	1.964574e+001	0.0	-6.180340e+000	1.902113e+001	0.0	-8.515590e+000	1.809654e+001	0.0	-1.071654e+001	1.688656e+001	0.0	-1.274848e+001	1.541026e+001	0.0	-1.457937e+001	1.369094e+001	0.0	-1.618034e+001	1.175570e+001	0.0	-1.752613e+001	9.635070e+000	0.0	-1.859553e+001	7.362490e+000	0.0	-1.937166e+001	4.973800e+000	0.0	-1.984229e+001	2.506660e+000	0.0	-2.000000e+001	0.000000e+000	0.0	-1.984229e+001	-2.506670e+000	0.0	-1.937166e+001	-4.973800e+000	0.0	-1.859553e+001	-7.362490e+000	0.0	-1.752613e+001	-9.635080e+000	0.0	-1.618034e+001	-1.175571e+001	0.0	-1.457937e+001	-1.369094e+001	0.0	-1.274848e+001	-1.541027e+001	0.0	-1.071653e+001	-1.688656e+001	0.0	-8.515580e+000	-1.809654e+001	0.0	-6.180340e+000	-1.902113e+001	0.0	-3.747620e+000	-1.964575e+001	0.0	-1.255810e+000	-1.996053e+001	0.0	1.255810e+000	-1.996053e+001	0.0	3.747630e+000	-1.964574e+001	0.0	6.180340e+000	-1.902113e+001	0.0	8.515590e+000	-1.809654e+001	0.0	1.071654e+001	-1.688656e+001	0.0	1.274848e+001	-1.541026e+001	0.0	1.457937e+001	-1.369094e+001	0.0	1.618034e+001	-1.175570e+001	0.0	1.752614e+001	-9.635070e+000	0.0	1.859553e+001	-7.362490e+000	0.0	1.937166e+001	-4.973790e+000	0.0	1.984229e+001	-2.506660e+000	0.0	2.000000e+001	0.000000e+000	0.0	6.073264e-002	-4.497874e-002	0.0	6.601191e-001	-5.168112e-002	0.0	4.257987e-001	7.160926e-002	0.0	6.902365e-001	5.711928e-002	0.0	3.794966e-001	-6.693225e-002	0.0	9.994598e-001	-7.009773e-004	0.0	9.985489e-001	-1.282627e-003	0.0	7.738355e-001	-3.871126e-002	0.0	6.898191e-001	-4.930201e-002	0.0	-1.723822e-003	7.577003e-003	0.0	7.468019e-001	-4.282261e-002	0.0	5.835547e-001	6.726234e-002	0.0	9.927768e-001	-3.510308e-003	0.0	9.898664e-001	-4.355901e-003	0.0	5.991553e-001	6.632007e-002	0.0	7.187599e-001	-4.636407e-002	0.0	-1.681359e-003	9.935311e-004	0.0	9.864590e-001	-5.253266e-003	0.0	9.825641e-001	-6.178396e-003	0.0	-1.526124e-003	-6.122776e-003	0.0	6.450293e-001	-5.269991e-002	0.0	8.243801e-001	-2.955420e-002	0.0	7.997235e-001	-3.421012e-002	0.0	3.487896e-001	7.220398e-002	0.0	8.476858e-001	-2.508340e-002	0.0	2.476300e-001	7.161678e-002	0.0	8.695956e-001	-2.109116e-002	0.0	9.522326e-003	2.628753e-002	0.0	8.900267e-001	-1.781710e-002	0.0	7.701568e-002	-4.967550e-002	0.0	9.089334e-001	-1.533592e-002	0.0	-2.071084e-003	-2.995488e-003	0.0	9.419111e-001	-1.204288e-002	0.0	9.262538e-001	-1.351189e-002	0.0	1.792817e-002	-2.647954e-002	0.0	4.260593e-001	-6.447521e-002	0.0	8.588230e-001	-2.300702e-002	0.0	9.558401e-001	-1.059547e-002	0.0	9.781741e-001	-7.130040e-003	0.0	9.679557e-001	-8.953169e-003	0.0	1.583580e-001	-6.420453e-002	0.0	8.996760e-001	-1.648123e-002	0.0	7.604561e-001	-4.082977e-002	0.0	9.971268e-001	-2.005545e-003	0.0	5.989976e-001	-5.530995e-002	0.0	4.417349e-001	-6.359634e-002	0.0	5.363915e-001	-5.844246e-002	0.0	4.732422e-001	-6.182319e-002	0.0	5.048283e-001	-6.009145e-002	0.0	4.890246e-001	-6.094792e-002	0.0	1.249873e-001	-5.966488e-002	0.0	2.783346e-002	-3.203241e-002	0.0	3.949283e-001	-6.615703e-002	0.0	4.620972e-002	-3.998
[...]
POINT_DATA 5233

SCALARS Density float 1
LOOKUP_TABLE default
1.166107e+000	1.138763e+000	1.122882e+000	1.108915e+000	1.095995e+000	1.083537e+000	1.070892e+000	1.058267e+000	1.046196e+000	1.035956e+000	1.029342e+000	1.027853e+000	1.032060e+000	1.041147e+000	1.053356e+000	1.066608e+000	1.078970e+000	1.088992e+000	1.095850e+000	1.099232e+000	1.099081e+000	1.095567e+000	1.088923e+000	1.079501e+000	1.067598e+000	1.053614e+000	1.037943e+000	1.021030e+000	1.003356e+000	9.854524e-001	9.679873e-001	9.516509e-001	9.370980e-001	9.252204e-001	9.167528e-001	9.122251e-001	9.115033e-001	9.140563e-001	9.190112e-001	9.255067e-001	9.326992e-001	9.399851e-001	9.468168e-001	9.528679e-001	9.578733e-001	9.617180e-001	9.643003e-001	9.656179e-001	9.656558e-001	9.644513e-001	9.620144e-001	9.584712e-001	9.540960e-001	9.491396e-001	9.431059e-001	9.352165e-001	9.278045e-001	9.273798e-001	9.336988e-001	9.235105e-001	8.582362e-001	7.620014e-001	7.180841e-001	7.203872e-001	7.307485e-001	7.387056e-001	7.447326e-001	7.512017e-001	7.587201e-001	7.669350e-001	7.757520e-001	7.853403e-001	7.958101e-001	8.069801e-001	8.185356e-001	8.302923e-001	8.423499e-001	8.549218e-001	8.679873e-001	8.815115e-001	8.955405e-001	9.100572e-001	9.251366e-001	9.408144e-001	9.571884e-001	9.744150e-001	9.926018e-001	1.011969e+000	1.032824e+000	1.055361e+000	1.080054e+000	1.107473e+000	1.137981e+000	1.172304e+000	1.210583e+000	1.251861e+000	1.291818e+000	1.333206e+000	1.349673e+000	1.349417e+000	1.351184e+000	1.334421e+000	1.292271e+000	1.245073e+000	1.188792e+000	1.129595e+000	1.070657e+000	1.013887e+000	9.605898e-001	9.119803e-001	8.684419e-001	8.298366e-001	7.960411e-001	7.664711e-001	7.408433e-001	7.190054e-001	7.004432e-001	6.845299e-001	6.708301e-001	6.589212e-001	6.484946e-001	6.396072e-001	6.325705e-001	6.272929e-001	6.232847e-001	6.198276e-001	6.169624e-001	6.148386e-001	6.133755e-001	6.121955e-001	6.112091e-001	6.106072e-001	6.107320e-001	6.117201e-001	6.135521e-001	6.160734e-001	6.191246e-001	6.225544e-001	6.262442e-001	6.300865e-001	6.340020e-001	6.378977e-001	6.417296e-001	6.453659e-001	6.486414e-001	6.514571e-001	6.537133e-001	6.554083e-001	6.563927e-001	6.566450e-001	6.559878e-001	6.543529e-001	6.513763e-001	6.470390e-001	6.415236e-001	6.350557e-001	6.278357e-001	6.192072e-001	6.055684e-001	5.861388e-001	5.616507e-001	6.103934e-001	8.015670e-001	9.700412e-001	9.755613e-001	9.714703e-001	9.791040e-001	9.912286e-001	1.003568e+000	1.016746e+000	1.030316e+000	1.043526e+000	1.055974e+000	1.067312e+000	1.077314e+000	1.085683e+000	1.092238e+000	1.096791e+000	1.099222e+000	1.099429e+000	1.097427e+000	1.093330e+000	1.087348e+000	1.079879e+000	1.071398e+000	1.062523e+000	1.053997e+000	1.046617e+000	1.041317e+000	1.038935e+000	1.040128e+000	1.044893e+000	1.052761e+000	1.062872e+000	1.074147e+000	1.086479e+000	1.099337e+000	1.114209e+000	1.128010e+000	1.130005e+000	9.988897e-001	9.996152e-001	9.996531e-001	9.994820e-001	9.993473e-001	9.991822e-001	9.989879e-001	9.987482e-001	9.984898e-001	9.983109e-001	9.982144e-001	9.983099e-001	9.985503e-001	9.990095e-001	9.993963e-001	9.997168e-001	9.999036e-001	1.000026e+000	1.000110e+000	1.000151e+000	1.000180e+000	1.000194e+000	1.000207e+000	1.000220e+000	1.000231e+000	1.000246e+000	1.000270e+000	1.000300e+000	1.000341e+000	1.000404e+000	1.000475e+000	1.000594e+000	1.000712e+000	1.000916e+000	1.001113e+000	1.001365e+000	1.001638e+000	1.001763e+000	1.001812e+000	1.001685e+000	1.001535e+000	1.001309e+000	1.001099e+000	1.000892e+000	1.000705e+000	1.000490e+000	1.000321e+000	1.000301e+000	9.994923e-001	9.984128e-001	9.476200e-001	9.271228e-001	6.501862e-001	6.866878e-001	9.278962e-001	1.142277e+000	1.129961e+000	9.657389e-001	9.193073e-001	1.314852e+000	9.385502e-001	6.461458e-001	1.090672e+000	1.079168e+000	6.402916e-001	9.219790e-001	1.347532e+000	1.067803e+000	1.056967e+000	1.318705e+000	9.330268e-001	1.029510e+000	9.976573e-001	6.321056e-001	1.057407e+000	6.143926e-001	1.078367e+000	1.080205e+000	1.089904e+000	9.163737e-001	1.090290e+000	1.341396e+000	1.060131e+000	1.079286e+000	1.089964e+000	9.468780e-001	1.068923e+000	1.041826e+000	1.047269e+000	1.036168e+000	8.125513e-001	1.091567e+000	9.512366e-001	1.115209e+000	9.511501e-001	9.518043e-001	9.644021e-001	9.597949e-001	9.643541e-001	9.626323e-001	8.482491e-001	1.041757e+000	9.319531e-001	9.818878e-001	9.401633e-001	8.048933e-001	9.418251e-001	1.020409e+000	7.235312e-001	1.070310e+000	8.242089e-001	7.816540e-001	9.016886e-001	8.738764e-001	9.599012e-001	8.014292e-001	9.455034e-001	1.085449e+000	1.064825e+000	1.102621e+000	1.180710e+000	9.789077e-001	1.086125e+000	1.050097e+000	1.039914e+000	1.279411e+000	1.044153e+000	7.504458e-001	9.627231e-001	9.285794e-001	9.814217e-001	8.607837e-001	7.644643e-001	9.560170e-001	9.222933e-001	9.643212e-001	1.216162e+000	1.117467e+000	9.346112e-001	7.911292e-001	1.180597e+000	7.569312e-001	8.875348e-001	7.302763e-001	7.439434e-001	9.560735e-001	9.189881e-001	1.342891e+000	1.288683e+000	6.574221e-001	1.346472e+000	8.904801e-001	7.611132e-001	8.179876e-001	6.505855e-001	6.469257e-001	1.093919e+000	6.587813e-001	6.572928e-001	1.047013e+000	1.054954e+000	1.095381e+000	6.585341e-001	6.530381e-001	6.396257e-001	1.088604e+000	1.095647e+000	7.006366e-001	1.046898e+000	1.061493e+000	1.076075e+000	6.721008e-001	7.380282e-001	6.189383e-001	6.151221e-001	6.236506e-001	6.249641e-001	6.554444e-001	6.433572e-001	6.314724e-001	6.427077e-001	6.242847e-001	6.187141e-001	6.154212e-001	5.825077e-001	6.510011e-001	9.830191e-001	9.955667e-001	1.028444e+000	1.004681e+000	1.072630e+000	1.052277e+000	1.096482e+000	1.087476e+000	1.068755e+000	1.092969e+000	1.049890e+000	1.080825e+000	1.092342e+000	1.040642e+000	1.063020e+000	9.936819e-001	1.016221e+000	9.639210e-001	9.812189e-001	6.085761e-001	5.816265e-001	6.548509e-001	6.331229e-001	6.168976e-001	6.145439e-001	6.271907e-001	6.209385e-001	7.876590e-001	6.366111e-001	1.028321e+000	8.522468e-001	7.727904e-001	1.185487e+000	1.036842e+000	1.013855e+000	9.085175e-001	9.649539e-001	1.235679e+000	9.327361e-001	1.133076e+000	6.854778e-001	7.180079e-001	6.166700e-001	6.604368e-001	1.049710e+000	1.055236e+000	6.217511e-001	1.063035e+000	1.072250e+000	6.284477e-001	6.358355e-001	1.082843e+000	1.139261e+000	1.106631e+000	1.118775e+000	9.393247e-001	1.000526e+000	1.082649e+000	6.590467e-001	1.253209e+000	1.147741e+000	9.316584e-001	8.361141e-001	7.335931e-001	7.383295e-001	1.292615e+000	1.322991e+000	7.368901e-001	9.267149e-001	1.081737e+000	1.178402e+000	6.550712e-001	9.274903e-001	9.789025e-001	1.075556e+000	8.678748e-001	1.058908e+000	1.035632e+000	9.083487e-001	1.300348e+000	7.800163e-001	1.120422e+000	1.045070e+000	8.308883e-001	9.286387e-001	9.346696e-001	9.537615e-001	9.230446e-001	9.312946e-001	1.083322e+000	9.932652e-001	1.128091e+000	9.902677e-001	5.868405e-001	1.067976e+000	6.758039e-001	6.272661e-001	6.367819e-001	1.087481e+000	1.063783e+000	6.308518e-001	6.614679e-001	1.067697e+000	1.091029e+000	1.070548e+000	1.062158e+000	1.054791e+000	6.200480e-001	6.277768e-001	6.211673e-001	6.884840e-001	9.303911e-001	7.890266e-001	1.081122e+000	6.486304e-001	8.095405e-001	1.054559e+000	1.078905e+000	1.092838e+000	8.193051e-001	1.159480e+000	1.097851e+000	1.087931e+000	1.174349e+000	1.259514e+000	1.209716e+000	1.338803e+000	1.341498e+000	1.094280e+000	1.177287e+000	9.542365e-001	1.119192e+000	1.096218e+000	6.482143e-001	9.630812e-001	1.065845e+000	1.075396e+000	6.509688e-001	1.085631e+000	1.325431e+000	9.495376e-001	6.448027e-001	1.047997e+000	6.210752e-001	1.068133e+000	1.080496e+000	9.383106e-001	1.083703e+000	1.077517e+000	1.056545e+000	1.047672e+000	1.049791e+000	1.043339e+000	1.057059e+000	8.551066e-001	9.526210e-001	9.651283e-001	1.107344e+000	9.575349e-001	9.606332e-001	9.627533e-001	1.070220e+000	9.379085e-001	9.445463e-001	9.312921e-001	1.007013e+000	1.071446e+000	1.064149e+000	8.429125e-001	8.941908e-001	9.611503e-001	9.500253e-001	1.044996e+000	1.049820e+000	9.336818e-001	9.418469e-001	8.806469e-001	8.676375e-001	9.582947e-001	9.545098e-001	9.885340e-001	9.709848e-001	1.148355e+000	9.377280e-001	9.306723e-001	8.085172e-001	7.984999e-001	7.716428e-001	7.642276e-001	7.336758e-001	7.721778e-001	7.572803e-001	1.339790e+000	1.242144e+000	8.391328e-001	1.058267e+000	6.613685e-001	6.605703e-001	6.590603e-001	6.569427e-001	1.053576e+000	1.057602e+000	1.088730e+000	6.543991e-001	6.514299e-001	6.412487e-001	1.091631e+000	1.073620e+000	7.592503e-001	7.829346e-001	6.197007e-001	6.200143e-001	6.420736e-001	6.565845e-001	6.653363e-001	1.027133e+000	9.880691e-001	9.907067e-001	1.016376e+000	1.058837e+000	1.093051e+000	1.082422e+000	1.075774e+000	1.048939e+000	1.038304e+000	1.006616e+000	9.972103e-001	9.993607e-001	8.821090e-001	6.027745e-001	6.245945e-001	6.581446e-001	6.603553e-001	6.362387e-001	6.448984e-001	6.229431e-001	6.255741e-001	6.287616e-001	6.325727e-001	1.035008e+000	8.721409e-001	9.087223e-001	1.007843e+000	1.022141e+000	9.638850e-001	9.639687e-001	1.219141e+000	9.482119e-001	7.031639e-001	7.197515e-001	6.250458e-001	6.227663e-001	6.376803e-001	6.341515e-001	1.079391e+000	1.084556e+000	9.449649e-001	9.397333e-001	1.026633e+000	1.273351e+000	7.492717e-001	1.306142e+000	9.365142e-001	7.448410e-001	9.909480e-001	9.630493e-001	1.074409e+000	1.070614e+000	1.065545e+000	1.063560e+000	1.205187e+000	1.077331e+000	1.107790e+000	1.121630e+000	1.110674e+000	1.154038e+000	1.098112e+000	1.321648e+000	9.159563e-001	1.070578e+000	1.082441e+000	6.628702e-001	1.132498e+000	1.203615e+000	9.358915e-001	1.259312e+000	9.397569e-001	1.122390e+000	1.066434e+000	1.175537e+000	9.067779e-001	1.059191e+000	9.345199e-001	1.091949e+000	1.148462e+000	1.059644e+000	6.645207e-001	1.072040e+000	6.020569e-001	1.083843e+000	6.634303e-001	6.254546e-001	6.307341e-001	6.541665e-001	7.812219e-001	1.116863e+000	1.280943e+000	1.269662e+000	1.042315e+000	1.301279e+000	1.049230e+000	9.305392e-001	1.335655e+000	8.383200e-001	9.554933e-001	1.075132e+000	1.125116e+000	1.063818e+000	1.026665e+000	6.188723e-001	1.061788e+000	1.067481e+000	1.089063e+000	1.086696e+000	6.285277e-001	6.258153e-001	6.278651e-001	7.065499e-001	9.378911e-001	9.354357e-001	7.970444e-001	1.083810e+000	6.614785e-001	1.059332e+000	1.090869e+000	1.165997e+000	1.241297e+000	1.231796e+000	1.320960e+000	1.053234e+000	1.150628e+000	1.139310e+000	1.049885e+000	1.073738e+000	6.604502e-001	9.517843e-001	6.464139e-001	1.040100e+000	1.050346e+000	1.071869e+000	1.075488e+000	9.615109e-001	9.457349e-001	1.077020e+000	1.076692e+000	1.054989e+000	1.051091e+000	1.065642e+000	9.661605e-001	9.783124e-001	1.101400e+000	9.587236e-001	9.611387e-001	9.426151e-001	9.476284e-001	1.032893e+000	1.065625e+000	1.060132e+000	8.628841e-001	8.504521e-001	9.618772e-001	9.599087e-001	1.053119e+000	1.058550e+000	9.463400e-001	9.555046e-001	9.019180e-001	8.882520e-001	8.752767e-001	9.571175e-001	9.536904e-001	1.013888e+000	9.956031e-001	9.780746e-001	9.377123e-001	9.355873e-001	9.325118e-001	8.271276e-001	8.166796e-001	8.066616e-001	7.879451e-001	7.795195e-001	7.561761e-001	8.221669e-001	7.721075e-001	8.608258e-001	6.615244e-001	6.591822e-001	1.060687e+000	6.563015e-001	6.531575e-001	6.498267e-001	6.430415e-001	1.087910e+000	8.053117e-001	8.319570e-001	6.256192e-001	6.265289e-001	6.706733e-001	6.818616e-001	6.936115e-001	9.934017e-001	1.089695e+000	1.090084e+000	1.082808e+000	1.077730e+000	1.071460e+000	1.055358e+000	1.046101e+000	1.036560e+000	1.017548e+000	1.009730e+000	1.000508e+000	1.002152e+000	9.958021e-001	8.014430e-001	6.201991e-001	6.639953e-001	6.648931e-001	6.357388e-001	6.472428e-001	6.551601e-001	6.300584e-001	6.329166e-001	6.371087e-001	6.420411e-001	6.479506e-001	8.921014e-001	9.265858e-001	1.003837e+000	1.016645e+000	1.028728e+000	9.627078e-001	9.632850e-001	9.638041e-001	1.002224e+000	7.220540e-001	7.398813e-001	7.595475e-001	6.268940e-001	6.396666e-001	6.364288e-001	6.333586e-001	1.076733e+000	1.081186e+000	1.085080e+000	9.497502e-001	9.455563e-001	9.414863e-001	7.643773e-001	7.549764e-001	1.286692e+000	9.239465e-001	1.086339e+000	1.065098e+000	9.622605e-001	1.301582e+000	1.119523e+000	1.068316e+000	1.065195e+000	1.057598e+000	1.075624e+000	6.644437e-001	1.263456e+000	1.084620e+000	1.195043e+000	1.068167e+000	1.080808e+000	1.249313e+000	6.207178e-001	1.223229e+000	1.124302e+000	1.154442e+000	1.001004e+000	8.474880e-001	1.100404e+000	9.405374e-001	9.384323e-001	9.535231e-001	7.648370e-001	1.067539e+000	6.693260e-001	1.071365e+000	1.074955e+000	1.025279e+000	6.776758e-001	6.335497e-001	1.080122e+000	8.269395e-001	1.058369e+000	1.098224e+000	1.071179e+000	1.104131e+000	1.056386e+000	1.122534e+000	9.420961e-001	1.219952e+000	9.464944e-001	9.504548e-001	1.146292e+000	1.088024e+000	1.170660e+000	1.059617e+000	6.663710e-001	6.321681e-001	1.278814e+000	1.121064e+000	6.415400e-001	1.084216e+000	6.331422e-001	6.321156e-001	6.323437e-001	9.419579e-001	9.423873e-001	1.063947e+000	1.156384e+000	1.191144e+000	1.243916e+000	1.302877e+000	1.078495e+000	1.054144e+000	1.072742e+000	6.679808e-001	1.043107e+000	1.051436e+000	1.064072e+000	1.067831e+000	9.687753e-001	9.533105e-001	1.070258e+000	1.071011e+000	1.070297e+000	1.055354e+000	1.053863e+000	9.778959e-001	9.897722e-001	1.096152e+000	9.567847e-001	9.594373e-001	9.454559e-001	9.497922e-001	1.061712e+000	1.058198e+000	8.717117e-001	8.587829e-001	9.610538e-001	1.060445e+000	1.066054e+000	9.591328e-001	9.690780e-001	9.099852e-001	8.967001e-001	8.842764e-001	9.590952e-001	9.567790e-001	1.038758e+000	1.020131e+000	1.001902e+000	9.847839e-001	9.244881e-001	9.369488e-001	9.344487e-001	9.357703e-001	8.369136e-001	8.265316e-001	8.164860e-001	8.066977e-001	7.976777e-001	8.703072e-001	7.980704e-001	7.892281e-001	6.613546e-001	1.064209e+000	1.065661e+000	6.584129e-001	6.550184e-001	6.514883e-001	6.480924e-001	6.447908e-001	8.534863e-001	8.821174e-001	6.348368e-001	6.372271e-001	6.874894e-001	6.994858e-001	7.131070e-001	7.274853e-001	1.085931e+000	1.086294e+000	1.086301e+000	1.081741e+000	1.077411e+000	1.072899e+000	1.065102e+000	1.052141e+000	1.042523e+000	1.034675e+000	1.016685e+000	1.008587e+000	1.001055e+000	1.004055e+000	1.009746e+000	9.538935e-001	7.340637e-001	6.679654e-001	6.682108e-001	6.334089e-001	6.446843e-001	6.567052e-001	6.641054e-001	6.395309e-001	6.432805e-001	6.471584e-001	6.532475e-001	6.598327e-001	6.683138e-001	9.114856e-001	9.427159e-001	1.012256e+000	1.023996e+000	1.033870e+000	9.613608e-001	9.624324e-001	9.625713e-001	9.771653e-001	1.012571e+000	1.047755e+000	7.428645e-001	7.607862e-001	7.814128e-001	8.033591e-001	6.417725e-001	6.389992e-001	6.365317e-001	6.344590e-001	1.084054e+000	1.078463e+000	1.081684e+000	9.535124e-001	9.507776e-001	9.469618e-001	9.449720e-001	7.816530e-001	7.733244e-001	7.647285e-001	1.143473e+000	1.084071e+000	1.059126e+000	1.119468e+000	1.165460e+000	9.584609e-001	9.325085e-001	1.187012e+000	1.067946e+000	1.229736e+000	1.080835e+000	8.590216e-001	7.071579e-001	1.117888e+000	1.207392e+000	1.277319e+000	1.316451e+000	1.316834e+000	1.309034e+000	1.247447e+000	1.100580e+000	6.380484e-001	1.062302e+000	1.085038e+000	1.061402e+000	1.003086e+000	9.434264e-001	1.078514e+000	1.082557e+000	1.075909e+000	6.723709e-001	6.680564e-001	6.487751e-001	1.015788e+000	6.638401e-001	9.618399e-001	6.371253e-001	1.074843e+000	9.467202e-001	1.110899e+000	1.069371e+000	1.310206e+000	1.146914e+000	1.135988e+000	1.063980e+000	1.062104e+000	1.266937e+000	1.085448e+000	1.208636e+000	1.071131e+000	1.231235e+000	1.124772e+000	1.137963e+000	1.122268e+000	8.363721e-001	7.962983e-001	1.071708e+000	6.731346e-001	1.073549e+000	1.078344e+000	9.502857e-001	1.256525e+000	6.377906e-001	6.402071e-001	6.407157e-001	9.484917e-001	1.148747e+000	1.178938e+000	1.281388e+000	1.101960e+000	1.045200e+000	1.051637e+000	1.056231e+000	1.061537e+000	9.612042e-001	9.766808e-001	1.063535e+000	1.066117e+000	1.065341e+000	1.065287e+000	1.056986e+000	1.057345e+000	9.843765e-001	1.091714e+000	9.547392e-001	9.575237e-001	9.470167e-001	9.508831e-001	1.059516e+000	1.057848e+000	8.804734e-001	8.670328e-001	1.066762e+000	1.072228e+000	9.714048e-001	9.184163e-001	9.046680e-001	8.953484e-001	9.598135e-001	1.044022e+000	1.025981e+000	1.008304e+000	9.924258e-001	8.922279e-001	9.299030e-001	9.369744e-001	9.382641e-001	9.406967e-001	8.463922e-001	8.382067e-001	8.256408e-001	8.182167e-001	8.069749e-001	1.067414e+000	1.067877e+000	1.069152e+000	6.601066e-001	6.564975e-001	6.529572e-001	6.493074e-001	6.461177e-001	8.745707e-001	9.022942e-001	6.446045e-001	6.459472e-001	7.157031e-001	7.335147e-001	7.498179e-001	1.082025e+000	1.082864e+000	1.080531e+000	1.079518e+000	1.075038e+000	1.072314e+000	1.065602e+000	1.056826e+000	1.046832e+000	1.033616e+000	1.010249e+000	1.008041e+000	8.061314e-001	6.452245e-001	6.678282e-001	6.514806e-001	6.536396e-001	6.612921e-001	6.648254e-001	6.754768e-001	6.841373e-001	6.952472e-001	9.305495e-001	9.587458e-001	1.019487e+000	1.029176e+000	1.036667e+000	9.600486e-001	9.615677e-001	9.891012e-001	1.022021e+000	1.053517e+000	7.661639e-001	7.837588e-001	8.039982e-001	8.274283e-001	8.505395e-001	6.433543e-001	6.409560e-001	6.395318e-001	6.382226e-001	1.078448e+000	1.079616e+000	9.557944e-001	9.512753e-001	8.004888e-001	7.903482e-001	7.861980e-001	7.792532e-001	1.125857e+000	1.103872e+000	1.178650e+000	1.286874e+000	1.146249e+000	1.067281e+000	1.074454e+000	1.236534e+000	1.070968e+000	1.104277e+000	1.076948e+000	1.262909e+000	1.082845e+000	1.159346e+000	6.424836e-001	1.120167e+000	1.141536e+000	1.214342e+000	1.139867e+000	1.063647e+000	9.614902e-001	1.072376e+000	8.417135e-001	1.059383e+000	1.061097e+000	9.564768e-001	9.408390e-001	8.631791e-001	1.231687e+000	9.466487e-001	9.703535e-001	9.559844e-001	7.449881e-001	1.069878e+000	1.077672e+000	1.255937e+000	1.114195e+000	1.061002e+000	1.114811e+000	1.070684e+000	1.313546e+000	1.248186e+000	1.082580e+000	9.713399e-001	6.663638e-001	6.597134e-001	1.076938e+000	1.128754e+000	1.086619e+000	1.288963e+000	1.140104e+000	1.065886e+000	1.215631e+000	1.197548e+000	6.757416e-001	1.101716e+000	1.072362e+000	1.073343e+000	6.726164e-001	6.457652e-001	6.513912e-001	9.608646e-001	1.167794e+000	1.192500e+000	1.121392e+000	1.048053e+000	1.056026e+000	9.843444e-001	1.060826e+000	1.061445e+000	1.059348e+000	1.088433e+000	9.534267e-001	1.058851e+000	1.058701e+000	8.833565e-001	1.071761e+000	9.835890e-001	9.974679e-001	9.213276e-001	9.039783e-001	9.613295e-001	1.048778e+000	1.030508e+000	1.013695e+000	1.001900e+000	9.157248e-001	9.426199e-001	9.443786e-001	8.424363e-001	8.229426e-001	1.069697e+000	1.070104e+000	6.521582e-001	6.460040e-001	9.203478e-001	6.596116e-001	7.719286e-001	1.038548e+000	1.077321e+000	1.073479e+000	1.066771e+000	1.057592e+000	1.048909e+000	1.022592e+000	1.009934e+000	1.015068e+000	9.600915e-001	7.480424e-001	6.578594e-001	6.568338e-001	6.737849e-001	6.710132e-001	6.857607e-001	7.024650e-001	7.102605e-001	7.271494e-001	9.482078e-001	9.742148e-001	1.013320e+000	1.027744e+000	1.039013e+000	9.583435e-001	9.604728e-001	1.000391e+000	1.029557e+000	1.058603e+000	1.086126e+000	7.908960e-001	8.080697e-001	8.271652e-001	8.498393e-001	8.760792e-001	8.933052e-001	6.423065e-001	6.418167e-001	1.075728e+000	1.076345e+000	9.593885e-001	9.543745e-001	9.552056e-001	8.068484e-001	8.028528e-001	1.079970e+000	1.128101e+000	1.122669e+000	1.091533e+000	1.028211e+000	1.075415e+000	1.118190e+000	1.100310e+000	1.186930e+000	1.136274e+000	1.110170e+000	1.093568e+000	1.157910e+000	1.235837e+000	1.244948e+000	1.070699e+000	9.832337e-001	6.483451e-001	1.083884e+000	1.057553e+000	1.101316e+000	9.257182e-001	1.135241e+000	1.170460e+000	9.457073e-001	1.058689e+000	9.591269e-001	9.617632e-001	1.067494e+000	1.071212e+000	1.084421e+000	1.069557e+000	1.115005e+000	1.072427e+000	1.073614e+000	1.071244e+000	6.602777e-001	6.767537e-001	9.641622e-001	9.912994e-001	1.100722e+000	1.105636e+000	1.294147e+000	1.064363e+000	1.070802e+000	1.140649e+000	1.075583e+000	1.218306e+000	1.153152e+000	9.608583e-001	1.231027e+000	9.807157e-001	9.638527e-001	1.071594e+000	1.266913e+000	1.061969e+000	1.080279e+000	9.724332e-001	1.268625e+000	1.140160e+000	1.007625e+000	1.216947e+000	1.202471e+000	6.