# vtk DataFile Version 3.0
vtk output
ASCII
DATASET UNSTRUCTURED_GRID
POINTS 5233 float
9.997500e-001	-3.632897e-005	0.0	9.990000e-001	-1.452538e-004	0.0	9.977600e-001	-3.251112e-004	0.0	9.960200e-001	-5.769984e-004	0.0	9.937800e-001	-9.004365e-004	0.0	9.910500e-001	-1.293364e-003	0.0	9.878400e-001	-1.753610e-003	0.0	9.841300e-001	-2.283177e-003	0.0	9.799500e-001	-2.876826e-003	0.0	9.752800e-001	-3.536324e-003	0.0	9.701500e-001	-4.256269e-003	0.0	9.645400e-001	-5.038225e-003	0.0	9.584700e-001	-5.878077e-003	0.0	9.519400e-001	-6.774429e-003	0.0	9.449600e-001	-7.724467e-003	0.0	9.375400e-001	-8.725349e-003	0.0	9.296900e-001	-9.774221e-003	0.0	9.214000e-001	-1.087086e-002	0.0	9.127000e-001	-1.200973e-002	0.0	9.035800e-001	-1.319056e-002	0.0	8.940600e-001	-1.440916e-002	0.0	8.841500e-001	-1.566269e-002	0.0	8.738500e-001	-1.694956e-002	0.0	8.631800e-001	-1.826569e-002	0.0	8.521600e-001	-1.960709e-002	0.0	8.407700e-001	-2.097463e-002	0.0	8.290500e-001	-2.236196e-002	0.0	8.170100e-001	-2.376642e-002	0.0	8.046400e-001	-2.518764e-002	0.0	7.919700e-001	-2.662063e-002	0.0	7.790100e-001	-2.806277e-002	0.0	7.657800e-001	-2.951034e-002	0.0	7.522800e-001	-3.096181e-002	0.0	7.385200e-001	-3.241453e-002	0.0	7.245300e-001	-3.386377e-002	0.0	7.103200e-001	-3.530689e-002	0.0	6.958900e-001	-3.674225e-002	0.0	6.812700e-001	-3.816515e-002	0.0	6.664700e-001	-3.957289e-002	0.0	6.515000e-001	-4.096270e-002	0.0	6.363800e-001	-4.233084e-002	0.0	6.211300e-001	-4.367359e-002	0.0	6.057600e-001	-4.498807e-002	0.0	5.902800e-001	-4.627133e-002	0.0	5.747100e-001	-4.751951e-002	0.0	5.590600e-001	-4.872956e-002	0.0	5.433600e-001	-4.989684e-002	0.0	5.276100e-001	-5.101898e-002	0.0	5.118400e-001	-5.209138e-002	0.0	4.960500e-001	-5.311154e-002	0.0	4.802700e-001	-5.407492e-002	0.0	4.645100e-001	-5.497836e-002	0.0	4.487800e-001	-5.581860e-002	0.0	4.331100e-001	-5.659142e-002	0.0	4.175000e-001	-5.729417e-002	0.0	4.019700e-001	-5.792324e-002	0.0	3.865400e-001	-5.847521e-002	0.0	3.712300e-001	-5.894684e-002	0.0	3.560400e-001	-5.933562e-002	0.0	3.409900e-001	-5.963848e-002	0.0	3.261100e-001	-5.985254e-002	0.0	3.114000e-001	-5.997565e-002	0.0	2.968700e-001	-6.000550e-002	0.0	2.825500e-001	-5.994005e-002	0.0	2.684500e-001	-5.977766e-002	0.0	2.545700e-001	-5.951658e-002	0.0	2.409400e-001	-5.915586e-002	0.0	2.275700e-001	-5.869457e-002	0.0	2.144700e-001	-5.813197e-002	0.0	2.016600e-001	-5.746811e-002	0.0	1.891400e-001	-5.670228e-002	0.0	1.769300e-001	-5.583514e-002	0.0	1.650400e-001	-5.486709e-002	0.0	1.534900e-001	-5.379978e-002	0.0	1.422900e-001	-5.263443e-002	0.0	1.314400e-001	-5.137134e-002	0.0	1.209500e-001	-5.001187e-002	0.0	1.108500e-001	-4.856067e-002	0.0	1.011300e-001	-4.701715e-002	0.0	9.181000e-002	-4.538527e-002	0.0	8.290000e-002	-4.366791e-002	0.0	7.440000e-002	-4.186608e-002	0.0	6.633000e-002	-3.998514e-002	0.0	5.869000e-002	-3.802636e-002	0.0	5.149000e-002	-3.599338e-002	0.0	4.474000e-002	-3.389028e-002	0.0	3.844000e-002	-3.171811e-002	0.0	3.260000e-002	-2.948109e-002	0.0	2.723000e-002	-2.718420e-002	0.0	2.232000e-002	-2.482329e-002	0.0	1.790000e-002	-2.241365e-002	0.0	1.395000e-002	-1.994492e-002	0.0	1.049000e-002	-1.742916e-002	0.0	7.520000e-003	-1.486756e-002	0.0	5.040000e-003	-1.226032e-002	0.0	3.050000e-003	-9.605565e-003	0.0	1.560000e-003	-6.917518e-003	0.0	5.600000e-004	-4.173160e-003	0.0	6.000000e-005	-1.375330e-003	0.0	0.000000e+000	0.000000e+000	0.0	6.000000e-005	1.375330e-003	0.0	5.600000e-004	4.173160e-003	0.0	1.560000e-003	6.917518e-003	0.0	3.050000e-003	9.605565e-003	0.0	5.040000e-003	1.226032e-002	0.0	7.520000e-003	1.486756e-002	0.0	1.049000e-002	1.742916e-002	0.0	1.395000e-002	1.994492e-002	0.0	1.790000e-002	2.241365e-002	0.0	2.232000e-002	2.482329e-002	0.0	2.723000e-002	2.718420e-002	0.0	3.260000e-002	2.948109e-002	0.0	3.844000e-002	3.171811e-002	0.0	4.474000e-002	3.389028e-002	0.0	5.149000e-002	3.599338e-002	0.0	5.869000e-002	3.802636e-002	0.0	6.633000e-002	3.998514e-002	0.0	7.440000e-002	4.186608e-002	0.0	8.290000e-002	4.366791e-002	0.0	9.181000e-002	4.538527e-002	0.0	1.011300e-001	4.701715e-002	0.0	1.108500e-001	4.856067e-002	0.0	1.209500e-001	5.001187e-002	0.0	1.314400e-001	5.137134e-002	0.0	1.422900e-001	5.263443e-002	0.0	1.534900e-001	5.379978e-002	0.0	1.650400e-001	5.486709e-002	0.0	1.769300e-001	5.583514e-002	0.0	1.891400e-001	5.670228e-002	0.0	2.016600e-001	5.746811e-002	0.0	2.144700e-001	5.813197e-002	0.0	2.275700e-001	5.869457e-002	0.0	2.409400e-001	5.915586e-002	0.0	2.545700e-001	5.951658e-002	0.0	2.684500e-001	5.977766e-002	0.0	2.825500e-001	5.994005e-002	0.0	2.968700e-001	6.000550e-002	0.0	3.114000e-001	5.997565e-002	0.0	3.261100e-001	5.985254e-002	0.0	3.409900e-001	5.963848e-002	0.0	3.560400e-001	5.933562e-002	0.0	3.712300e-001	5.894684e-002	0.0	3.865400e-001	5.847521e-002	0.0	4.019700e-001	5.792324e-002	0.0	4.175000e-001	5.729417e-002	0.0	4.331100e-001	5.659142e-002	0.0	4.487800e-001	5.581860e-002	0.0	4.645100e-001	5.497836e-002	0.0	4.802700e-001	5.407492e-002	0.0	4.960500e-001	5.311154e-002	0.0	5.118400e-001	5.209138e-002	0.0	5.276100e-001	5.101898e-002	0.0	5.433600e-001	4.989684e-002	0.0	5.590600e-001	4.872956e-002	0.0	5.747100e-001	4.751951e-002	0.0	5.902800e-001	4.627133e-002	0.0	6.057600e-001	4.498807e-002	0.0	6.211300e-001	4.367359e-002	0.0	6.363800e-001	4.233084e-002	0.0	6.515000e-001	4.096270e-002	0.0	6.664700e-001	3.957289e-002	0.0	6.812700e-001	3.816515e-002	0.0	6.958900e-001	3.674225e-002	0.0	7.103200e-001	3.530689e-002	0.0	7.245300e-001	3.386377e-002	0.0	7.385200e-001	3.241453e-002	0.0	7.522800e-001	3.096181e-002	0.0	7.657800e-001	2.951034e-002	0.0	7.790100e-001	2.806277e-002	0.0	7.919700e-001	2.662063e-002	0.0	8.046400e-001	2.518764e-002	0.0	8.170100e-001	2.376642e-002	0.0	8.290500e-001	2.236196e-002	0.0	8.407700e-001	2.097463e-002	0.0	8.521600e-001	1.960709e-002	0.0	8.631800e-001	1.826569e-002	0.0	8.738500e-001	1.694956e-002	0.0	8.841500e-001	1.566269e-002	0.0	8.940600e-001	1.440916e-002	0.0	9.035800e-001	1.319056e-002	0.0	9.127000e-001	1.200973e-002	0.0	9.214000e-001	1.087086e-002	0.0	9.296900e-001	9.774221e-003	0.0	9.375400e-001	8.725349e-003	0.0	9.449600e-001	7.724467e-003	0.0	9.519400e-001	6.774429e-003	0.0	9.584700e-001	5.878077e-003	0.0	9.645400e-001	5.038225e-003	0.0	9.701500e-001	4.256269e-003	0.0	9.752800e-001	3.536324e-003	0.0	9.799500e-001	2.876826e-003	0.0	9.841300e-001	2.283177e-003	0.0	9.878400e-001	1.753610e-003	0.0	9.910500e-001	1.293364e-003	0.0	9.937800e-001	9.004365e-004	0.0	9.960200e-001	5.769984e-004	0.0	9.977600e-001	3.251112e-004	0.0	9.990000e-001	1.452538e-004	0.0	9.997500e-001	3.632897e-005	0.0	1.000000e+000	0.000000e+000	0.0	1.984229e+001	2.506660e+000	0.0	1.937166e+001	4.973800e+000	0.0	1.859553e+001	7.362490e+000	0.0	1.752613e+001	9.635070e+000	0.0	1.618034e+001	1.175571e+001	0.0	1.457937e+001	1.369094e+001	0.0	1.274848e+001	1.541027e+001	0.0	1.071654e+001	1.688656e+001	0.0	8.515590e+000	1.809654e+001	0.0	6.180340e+000	1.902113e+001	0.0	3.747630e+000	1.964575e+001	0.0	1.255810e+000	1.996053e+001	0.0	-1.255810e+000	1.996053e+001	0.0	-3.747630e+000	1.964574e+001	0.0	-6.180340e+000	1.902113e+001	0.0	-8.515590e+000	1.809654e+001	0.0	-1.071654e+001	1.688656e+001	0.0	-1.274848e+001	1.541026e+001	0.0	-1.457937e+001	1.369094e+001	0.0	-1.618034e+001	1.175570e+001	0.0	-1.752613e+001	9.635070e+000	0.0	-1.859553e+001	7.362490e+000	0.0	-1.937166e+001	4.973800e+000	0.0	-1.984229e+001	2.506660e+000	0.0	-2.000000e+001	0.000000e+000	0.0	-1.984229e+001	-2.506670e+000	0.0	-1.937166e+001	-4.973800e+000	0.0	-1.859553e+001	-7.362490e+000	0.0	-1.752613e+001	-9.635080e+000	0.0	-1.618034e+001	-1.175571e+001	0.0	-1.457937e+001	-1.369094e+001	0.0	-1.274848e+001	-1.541027e+001	0.0	-1.071653e+001	-1.688656e+001	0.0	-8.515580e+000	-1.809654e+001	0.0	-6.180340e+000	-1.902113e+001	0.0	-3.747620e+000	-1.964575e+001	0.0	-1.255810e+000	-1.996053e+001	0.0	1.255810e+000	-1.996053e+001	0.0	3.747630e+000	-1.964574e+001	0.0	6.180340e+000	-1.902113e+001	0.0	8.515590e+000	-1.809654e+001	0.0	1.071654e+001	-1.688656e+001	0.0	1.274848e+001	-1.541026e+001	0.0	1.457937e+001	-1.369094e+001	0.0	1.618034e+001	-1.175570e+001	0.0	1.752614e+001	-9.635070e+000	0.0	1.859553e+001	-7.362490e+000	0.0	1.937166e+001	-4.973790e+000	0.0	1.984229e+001	-2.506660e+000	0.0	2.000000e+001	0.000000e+000	0.0	6.071847e-002	-4.599300e-002	0.0	6.602584e-001	-5.397924e-002	0.0	4.259462e-001	7.123173e-002	0.0	6.898893e-001	5.084802e-002	0.0	3.793152e-001	-7.273116e-002	0.0	9.994604e-001	-7.202256e-004	0.0	9.985440e-001	-1.312423e-003	0.0	7.737237e-001	-4.090969e-002	0.0	6.898893e-001	-5.084802e-002	0.0	-1.456769e-003	6.464601e-003	0.0	7.467285e-001	-4.428984e-002	0.0	5.836398e-001	6.115854e-002	0.0	9.927702e-001	-3.577733e-003	0.0	9.898650e-001	-4.450375e-003	0.0	5.991925e-001	5.980916e-002	0.0	7.187526e-001	-4.760665e-002	0.0	-1.597618e-003	7.671995e-004	0.0	9.864674e-001	-5.394793e-003	0.0	9.825871e-001	-6.398977e-003	0.0	-1.456774e-003	-6.464600e-003	0.0	6.451948e-001	-5.549610e-002	0.0	8.243215e-001	-3.409983e-002	0.0	7.996157e-001	-3.751255e-002	0.0	3.487901e-001	7.326090e-002	0.0	8.477112e-001	-3.071909e-002	0.0	2.474256e-001	7.182160e-002	0.0	8.697233e-001	-2.738134e-002	0.0	9.916188e-003	2.185203e-002	0.0	8.902508e-001	-2.411717e-002	0.0	7.700293e-002	-5.054436e-002	0.0	9.092206e-001	-2.095307e-002	0.0	-1.944578e-003	-3.190372e-003	0.0	9.421664e-001	-1.502079e-002	0.0	9.265514e-001	-1.791177e-002	0.0	1.789678e-002	-2.766280e-002	0.0	4.259462e-001	-7.123173e-002	0.0	8.588986e-001	-2.904064e-002	0.0	9.560213e-001	-1.230722e-002	0.0	9.782180e-001	-7.479396e-003	0.0	9.680592e-001	-9.783205e-003	0.0	1.582863e-001	-6.490557e-002	0.0	8.999374e-001	-2.252139e-002	0.0	7.603588e-001	-4.260503e-002	0.0	9.971186e-001	-2.046344e-003	0.0	5.991925e-001	-5.980916e-002	0.0	4.416505e-001	-7.055456e-002	0.0	5.365104e-001	-6.487405e-002	0.0	4.732224e-001	-6.895566e-002	0.0	5.048788e-001	-6.705339e-002	0.0	4.890394e-001	-6.804024e-002	0.0	1.249513e-001	-6.028257e-002	0.0	2.780447e-002	-3.325805e-002	0.0	3.947663e-001	-7.232395e-002	0.0	4.619013e-002	-4.112
[...]
POINT_DATA 5233
SCALARS Density float 1
LOOKUP_TABLE default
1.16493572110033e+00	1.13857285745824e+00	1.12254211334681e+00	1.10840294184268e+00	1.09522488444634e+00	1.08270832812225e+00	1.07074154377861e+00	1.05969914037867e+00	1.04936198632402e+00	1.03934589538878e+00	1.02868621139437e+00	1.01997137322531e+00	1.02054232764370e+00	1.03177843835249e+00	1.04930659077613e+00	1.06828020780431e+00	1.08517942506972e+00	1.09797758420526e+00	1.10588832277865e+00	1.10854348532972e+00	1.10584857018486e+00	1.09826983991098e+00	1.08663985411118e+00	1.07209526684892e+00	1.05572660723738e+00	1.03864541390219e+00	1.02175832565688e+00	1.00573130868885e+00	9.91066381059721e-01	9.78140797273535e-01	9.66724532253449e-01	9.55614297502933e-01	9.44288443952343e-01	9.36358156381288e-01	9.32552418883514e-01	9.29510834089871e-01	9.26423627917586e-01	9.24973988002370e-01	9.24750944312156e-01	9.24765714815234e-01	9.28618353540817e-01	9.35080738759929e-01	9.39283134838834e-01	9.40822621701637e-01	9.42187009946094e-01	9.47114079472421e-01	9.53184555186365e-01	9.57210507115688e-01	9.61330740445043e-01	9.63312585758845e-01	9.59115799397350e-01	9.49342492134874e-01	9.46256453521281e-01	9.55129620056559e-01	9.65079158896030e-01	9.58344782869245e-01	9.34014268201088e-01	9.08235701610398e-01	8.91593832581345e-01	8.74590265938404e-01	8.36123325772860e-01	7.91247515154769e-01	7.66211649794005e-01	7.56864971048111e-01	7.53813399784025e-01	7.50757449490041e-01	7.48303803144609e-01	7.49372927081280e-01	7.53592400676993e-01	7.59110546680843e-01	7.65404663808980e-01	7.72973409263047e-01	7.82213668462538e-01	7.92949157269478e-01	8.04760119313710e-01	8.17409524033862e-01	8.30733717241370e-01	8.44697796490112e-01	8.59254189523627e-01	8.74437517066619e-01	8.90287505110531e-01	9.06704913199819e-01	9.23654447268687e-01	9.41057172377968e-01	9.58910809875149e-01	9.77278261849971e-01	9.96180918506992e-01	1.01574955253256e+00	1.03620044909962e+00	1.05766992272004e+00	1.08063317491782e+00	1.10575674334921e+00	1.13362755102708e+00	1.16533702463418e+00	1.20155053082254e+00	1.24217655104747e+00	1.28378425718195e+00	1.32975632677468e+00	1.35195654924988e+00	1.35869353004827e+00	1.36693971096719e+00	1.35868705419273e+00	1.32589798234714e+00	1.27689135840981e+00	1.21047462060845e+00	1.13839313442618e+00	1.06780689058267e+00	1.00282226851024e+00	9.44998200294284e-01	8.94857752522303e-01	8.51789252710387e-01	8.14723926004967e-01	7.83007613808925e-01	7.55721477360070e-01	7.32300840712245e-01	7.12449606767915e-01	6.95599336574480e-01	6.81120878951116e-01	6.68592791234644e-01	6.57634327752579e-01	6.48078188646941e-01	6.40085484308267e-01	6.33850377522671e-01	6.29043187702299e-01	6.25091890275301e-01	6.21575033520447e-01	6.18831747207372e-01	6.17054929714866e-01	6.16047312452683e-01	6.15364138057376e-01	6.14940603523932e-01	6.14989950719788e-01	6.15817253364585e-01	6.17461701639847e-01	6.19815570994625e-01	6.22662675371723e-01	6.25813580814380e-01	6.29122201869570e-01	6.32423183784909e-01	6.35504688859492e-01	6.38148319591073e-01	6.40471380558745e-01	6.43308446395265e-01	6.46469537672795e-01	6.48909867754796e-01	6.50327775670673e-01	6.49810398465848e-01	6.48296042536687e-01	6.44770268528008e-01	6.41798233031693e-01	6.42909818663491e-01	6.45362036323461e-01	6.48059418254980e-01	6.37677935979780e-01	6.16056603858454e-01	6.13620148258078e-01	6.29929994181544e-01	6.26828520774692e-01	6.00365322613536e-01	5.76155199080200e-01	5.86380413830990e-01	6.84794618117371e-01	8.40962761199954e-01	9.64039824809863e-01	9.96901049407583e-01	9.71428254540974e-01	9.56439107171004e-01	9.67743394313776e-01	9.86994292331013e-01	1.01239826711088e+00	1.03688265693545e+00	1.05317054807911e+00	1.06669264992308e+00	1.08017724813727e+00	1.09257122777897e+00	1.10261139337874e+00	1.10966265110895e+00	1.11340408370037e+00	1.11376724047402e+00	1.11100753235884e+00	1.10562405239694e+00	1.09814323848350e+00	1.08887500753776e+00	1.07809957508117e+00	1.06658039736662e+00	1.05574066961759e+00	1.04752149201978e+00	1.04320581075896e+00	1.04199394295829e+00	1.04199024871281e+00	1.04307118879640e+00	1.04625106291894e+00	1.05258438565359e+00	1.06229523973315e+00	1.07431171408142e+00	1.08783871899900e+00	1.10197514826965e+00	1.11798308803335e+00	1.13397914417637e+00	1.13285866084128e+00	9.98803506774841e-01	9.99607393446708e-01	9.99654277484536e-01	9.99482523388838e-01	9.99350488100851e-01	9.99187770998983e-01	9.98996449880496e-01	9.98760348883658e-01	9.98505806893898e-01	9.98330874711152e-01	9.98238218608412e-01	9.98336297928855e-01	9.98577847042636e-01	9.99035416903403e-01	9.99420019324474e-01	9.99737735858450e-01	9.99922240159921e-01	1.00004258361301e+00	1.00012428775271e+00	1.00016493335354e+00	1.00019197087247e+00	1.00020578872262e+00	1.00021803173783e+00	1.00023075695310e+00	1.00024123348217e+00	1.00025591156515e+00	1.00027993629296e+00	1.00031032658576e+00	1.00035193412036e+00	1.00041563479861e+00	1.00048724262881e+00	1.00060698610329e+00	1.00072575748824e+00	1.00093062896411e+00	1.00112720211369e+00	1.00137707350196e+00	1.00164774259181e+00	1.00176964277494e+00	1.00181501915145e+00	1.00168561561482e+00	1.00153327412276e+00	1.00130595961364e+00	1.00109504594569e+00	1.00088777011556e+00	1.00070115768872e+00	1.00048359150321e+00	1.00031332297085e+00	1.00030106974404e+00	9.99419608042441e-01	9.98257943287062e-01	9.47587468813875e-01	9.28743024328545e-01	6.51242283065741e-01	7.74245092899249e-01	9.21232854545527e-01	1.14231697798051e+00	1.12971267967968e+00	9.66950865799492e-01	9.30265151820038e-01	1.33016216264068e+00	9.45076673728786e-01	6.13052752650093e-01	1.09029023243660e+00	1.07907748873299e+00	6.31088622406850e-01	9.36845884432594e-01	1.35546008883854e+00	1.06862041423040e+00	1.05911718546606e+00	1.31516664096181e+00	9.28629083847038e-01	1.01593213497035e+00	9.88789020929740e-01	6.37827027022371e-01	1.04631957820579e+00	6.20371159755503e-01	1.07481409950993e+00	1.07851336392391e+00	1.09427530074453e+00	9.13124748499201e-01	1.09829690111677e+00	1.34066561628576e+00	1.05845966346131e+00	1.08509890455063e+00	1.09031168697537e+00	9.63065024858380e-01	1.06122899309024e+00	1.03227467261957e+00	1.05034986929819e+00	1.03269243166870e+00	7.99283231884148e-01	1.09848940463821e+00	9.55565625712577e-01	1.11496507297933e+00	9.42382698009819e-01	9.49301633860766e-01	9.56009795874035e-01	9.54643642141442e-01	9.63712648178622e-01	9.63622798993299e-01	8.37270002215145e-01	1.04433263579257e+00	9.48832805141089e-01	9.84120252106131e-01	9.68038333853514e-01	8.12322588176603e-01	8.89033228584667e-01	1.02335771417949e+00	7.64634696268405e-01	1.07301616253366e+00	8.11129513334983e-01	7.72324372198806e-01	8.96723552391246e-01	8.65733044328918e-01	9.45264288515732e-01	7.88671044102320e-01	9.40395987172386e-01	1.08614297578122e+00	1.06652243438242e+00	1.10229005403274e+00	1.17580108069111e+00	9.66138772044795e-01	1.09371623071446e+00	1.04365998824880e+00	1.04162009692945e+00	1.29847383271364e+00	1.03098261069521e+00	7.56021542874492e-01	9.52040467937429e-01	9.39860342538614e-01	9.77450126529353e-01	8.51201495696005e-01	7.59968508201816e-01	9.42961640038780e-01	9.29405406206236e-01	9.65581939634628e-01	1.21004334521698e+00	1.11612225216256e+00	8.99916722194062e-01	7.79730888888269e-01	1.17916793358873e+00	7.56115776360457e-01	8.80921629736046e-01	7.78088719521896e-01	7.59259201349856e-01	9.44805011999665e-01	9.33053395786946e-01	1.35486526519418e+00	1.28302722018650e+00	6.53094602506507e-01	1.35075354206415e+00	8.75112195964850e-01	7.51976672202830e-01	8.04922615157889e-01	6.51875453259818e-01	6.48687743785912e-01	1.09608029069806e+00	6.48139261234841e-01	6.49967264332205e-01	1.04787952903810e+00	1.05006147622185e+00	1.10810954692702e+00	6.44668434886194e-01	6.52023777164201e-01	6.42447287507207e-01	1.09042406123848e+00	1.10332002364836e+00	6.97011028229781e-01	1.04876341731669e+00	1.05505300415353e+00	1.07232345134101e+00	6.71121898767197e-01	7.30891893620929e-01	6.26224593068266e-01	6.21696868976372e-01	6.26628866187203e-01	6.32079214924630e-01	6.50974445331876e-01	6.45958328500901e-01	6.34207110292250e-01	6.44878250338850e-01	6.21815811126974e-01	6.22464759814868e-01	6.20159528617938e-01	5.75054028475917e-01	6.33978760016176e-01	9.63688002157166e-01	1.01128071682619e+00	1.03152186810130e+00	9.84010168271876e-01	1.08444337765884e+00	1.06073696959404e+00	1.10694903339882e+00	1.10182972578730e+00	1.06290649449920e+00	1.09768568008330e+00	1.04806230844859e+00	1.09436065195483e+00	1.10644049695568e+00	1.04878853089023e+00	1.07273557686160e+00	9.66348950917774e-01	1.00362816391756e+00	9.34528525030596e-01	9.96027818705411e-01	5.98108001441585e-01	6.28633225986229e-01	6.52951558777368e-01	6.47615768207576e-01	6.21114728521579e-01	6.19884346129453e-01	6.29976693242336e-01	6.24258997436534e-01	7.76489428850766e-01	6.39224395569381e-01	1.01998682124750e+00	8.37675894776584e-01	7.65846044844992e-01	1.19921978279150e+00	1.02816577474782e+00	1.00168791796607e+00	8.63269743380870e-01	9.60075645792846e-01	1.25437641536939e+00	9.17770306381568e-01	1.13932465045326e+00	6.83262223760302e-01	7.12729225240465e-01	6.23699763687106e-01	6.60616964906646e-01	1.05115808091789e+00	1.05578231794741e+00	6.29068013096061e-01	1.06309176227742e+00	1.07259168061423e+00	6.35089341209234e-01	6.40163568362766e-01	1.08182342705804e+00	1.14593437296515e+00	1.10985745828554e+00	1.12290212028526e+00	9.35284203431444e-01	1.00334499383474e+00	1.08380515420468e+00	6.46194874128346e-01	1.24674618209702e+00	1.14454906027887e+00	9.30090243241974e-01	8.23850473725689e-01	7.60770865266063e-01	7.32365532704468e-01	1.30455556538593e+00	1.33280505196799e+00	7.69095216511628e-01	9.37079960832064e-01	1.08756633798587e+00	1.17510937434053e+00	6.24587273046154e-01	9.34859696609659e-01	9.77398094789714e-01	1.07603394673934e+00	8.43719850748182e-01	1.05173628268264e+00	1.02488282208950e+00	9.03739499505232e-01	1.29718760218887e+00	7.74012216688255e-01	1.11963071006370e+00	1.03789103424206e+00	8.18890364534295e-01	9.40756666829279e-01	9.32734804421440e-01	9.46061619180304e-01	9.19920827842582e-01	9.37179463393284e-01	1.08788206750589e+00	9.87564428658053e-01	1.13159397437738e+00	9.79807317595334e-01	6.00767267572241e-01	1.07682163047270e+00	6.75989086453718e-01	7.10091998088991e-01	6.40438004177528e-01	1.09879117193009e+00	1.06422791040128e+00	6.37948917668518e-01	6.50674294952033e-01	1.06188581242043e+00	1.10147733097825e+00	1.07110674567007e+00	1.05697081665999e+00	1.05561042752446e+00	6.26454388657304e-01	6.35500999977797e-01	6.27047420581302e-01	6.87245150069811e-01	9.33893425868789e-01	7.80957978475843e-01	1.07918159775404e+00	6.51401432320996e-01	7.98490585471125e-01	1.05345300631367e+00	1.07991813044886e+00	1.10166776960083e+00	8.07188424601570e-01	1.16391339744150e+00	1.10051482140392e+00	1.08969571615244e+00	1.18283409045074e+00	1.27287475038947e+00	1.20551350955354e+00	1.33976722837055e+00	1.34613372131234e+00	1.09468601853497e+00	1.17813217029634e+00	9.53886038571730e-01	1.11896534615208e+00	1.09608266789815e+00	6.51086348390184e-01	9.55341156657738e-01	1.06702222141118e+00	1.07462988823251e+00	6.29771308587175e-01	1.08565251667856e+00	1.32398936878092e+00	9.55118704756039e-01	6.48529243802779e-01	1.03845767929418e+00	6.28852763919458e-01	1.06404406532671e+00	1.08276141765187e+00	9.36638568755229e-01	1.08948065698045e+00	1.08226756189272e+00	1.05250327714340e+00	1.04967134421500e+00	1.04291486178041e+00	1.03901642348943e+00	1.05887825247086e+00	8.44895872335280e-01	9.56530942042815e-01	9.67332004796465e-01	1.10714738122235e+00	9.50123415305876e-01	9.61140454881782e-01	9.64493792712442e-01	1.07158210085952e+00	9.61604649832518e-01	9.66946966138045e-01	8.80711230896922e-01	1.00912492244966e+00	1.07406883403083e+00	1.06368604008239e+00	8.31581137232052e-01	8.88130535485499e-01	9.49544664389886e-01	9.44258459972846e-01	1.04455578346705e+00	1.05147538213396e+00	9.44112349241670e-01	9.48276474836230e-01	8.73187852075512e-01	8.58793568378166e-01	9.45975720405183e-01	9.45012055920384e-01	9.90134243289464e-01	9.71747988935904e-01	1.14627828727301e+00	8.94390601383127e-01	9.11438788763103e-01	7.97035853148201e-01	7.88477047700114e-01	7.68191076042175e-01	7.65481379663307e-01	7.76354877330054e-01	7.99123970852188e-01	7.66326091870546e-01	1.34690919579694e+00	1.23754063605113e+00	8.26794714224645e-01	1.05893278944836e+00	6.55287640323919e-01	6.47518934531219e-01	6.49948200643657e-01	6.52361416896755e-01	1.05390986210553e+00	1.05431824911181e+00	1.09037329999429e+00	6.52874596106751e-01	6.52884869158439e-01	6.45223345845161e-01	1.09579799807804e+00	1.06865970809873e+00	7.51535356424559e-01	7.73480092785909e-01	6.26632561841466e-01	6.27416938622574e-01	6.45323092508792e-01	6.58755336361478e-01	6.66700860165529e-01	1.02425965876509e+00	9.81046830199406e-01	1.01444645455314e+00	9.97941113105563e-01	1.06604966325985e+00	1.09967678468426e+00	1.09365575790956e+00	1.08616579412137e+00	1.05577906038212e+00	1.04398711551131e+00	9.83023091357145e-01	9.68160639516928e-01	9.97364347089780e-01	8.78447378415677e-01	5.89309743511739e-01	6.17205450270090e-01	6.50670457500994e-01	6.61150626545036e-01	6.48658008796507e-01	6.51942025832754e-01	6.28308132500813e-01	6.30452628598235e-01	6.33193850419245e-01	6.36591951022643e-01	1.02818624390961e+00	8.58959725341677e-01	8.95327016175135e-01	9.98962389880947e-01	1.01157710036493e+00	9.62795259514599e-01	9.58224500097100e-01	1.23118981552287e+00	9.35602527882412e-01	7.00433437123166e-01	7.15450761221757e-01	6.33017968313868e-01	6.30746917947957e-01	6.42371531133970e-01	6.40128640812131e-01	1.07627459708748e+00	1.08373876519604e+00	9.41119848094210e-01	9.34600209887151e-01	1.02889192619743e+00	1.26896142852336e+00	7.68097128535038e-01	1.30479383883455e+00	9.51279608653718e-01	7.79217522496203e-01	9.87573089284861e-01	9.57482583892873e-01	1.07807028804947e+00	1.07116111960715e+00	1.06590214291859e+00	1.05951525048287e+00	1.21368620917484e+00	1.07823958027848e+00	1.11142828674724e+00	1.12674065543242e+00	1.11040444554338e+00	1.15639038127923e+00	1.09846929606759e+00	1.32704290659401e+00	9.11852085452727e-01	1.07280657304365e+00	1.08270365015085e+00	6.43227974719932e-01	1.13213487935018e+00	1.20075549361259e+00	9.44980338490475e-01	1.25623989565099e+00	9.48757403689148e-01	1.12190248723908e+00	1.06483513276112e+00	1.17330528194262e+00	8.67265927478379e-01	1.05506472082167e+00	9.41611500671671e-01	1.09197952846071e+00	1.14706512642349e+00	1.05952409211680e+00	6.57056027949852e-01	1.06673324101961e+00	5.95462845927137e-01	1.08547634124278e+00	6.53194469711385e-01	6.33641241319648e-01	6.39085576574085e-01	6.57919165081415e-01	7.73061880785149e-01	1.12087446893629e+00	1.27851215008651e+00	1.27866517657057e+00	1.03701588438920e+00	1.30886700551990e+00	1.04490622668317e+00	9.27718303203143e-01	1.33927229988939e+00	8.27396095914083e-01	9.47263597780652e-01	1.07617948438480e+00	1.12760422995017e+00	1.07011532424764e+00	1.01724850221686e+00	6.66600288586922e-01	1.06201818942852e+00	1.06230584193555e+00	1.09598403415218e+00	1.09476893128328e+00	6.37223171954620e-01	6.34321092618828e-01	6.34829034346385e-01	7.04944229028066e-01	9.38462984248724e-01	9.39774921549850e-01	7.90038277732836e-01	1.08232917786085e+00	6.64399563801519e-01	1.05833586749797e+00	1.09313794826170e+00	1.17201447382518e+00	1.25087854140256e+00	1.22864901136992e+00	1.32137410729003e+00	1.05476042530689e+00	1.15006871831310e+00	1.13927458491499e+00	1.04824058922969e+00	1.07440731351423e+00	6.27715511217036e-01	9.50201405296452e-01	6.51202929417708e-01	1.03214924711416e+00	1.04397666727264e+00	1.07269212278270e+00	1.07827240982245e+00	9.61038331573458e-01	9.44149263381824e-01	1.08099702315314e+00	1.08096985328100e+00	1.05019181853714e+00	1.04544087784809e+00	1.06673099108734e+00	9.68316742870252e-01	9.78203167692235e-01	1.10124430761757e+00	9.56557109499335e-01	9.64307774241682e-01	9.67664016537265e-01	9.62378617421173e-01	1.03460111230360e+00	1.06569793541185e+00	1.05760796638594e+00	8.53620329300244e-01	8.40181822917975e-01	9.53770537541399e-01	9.49500791246898e-01	1.05355746170095e+00	1.05973966094978e+00	9.52393889409631e-01	9.58759772091133e-01	8.96531893942391e-01	8.81551767828156e-01	8.67231919267037e-01	9.47896631927591e-01	9.47350483555346e-01	1.01546565591640e+00	9.96759484878615e-01	9.78527704750770e-01	8.90211259896534e-01	9.02808099331620e-01	9.25527004352121e-01	8.16136546272382e-01	8.06450927622172e-01	7.97895368500732e-01	7.82818906942203e-01	7.77417315626624e-01	7.91641183415965e-01	8.23353547147875e-01	7.75579969018284e-01	8.49239551467710e-01	6.50417907891288e-01	6.54585608201598e-01	1.05827183625155e+00	6.54476526935823e-01	6.54516266455515e-01	6.53725507041389e-01	6.48645932142644e-01	1.08903577747349e+00	7.95723626586259e-01	8.21175806723099e-01	6.33402755862613e-01	6.33914645674653e-01	6.72625546486406e-01	6.82803819061992e-01	6.93431729605431e-01	1.00159085369632e+00	1.09291228383257e+00	1.09529751471630e+00	1.09141169684995e+00	1.08613686628189e+00	1.07903777647260e+00	1.06060807782746e+00	1.05149109876338e+00	1.03927917232561e+00	9.96378396629415e-01	9.82618874085378e-01	9.75308157057769e-01	1.02463901627951e+00	9.68913516949429e-01	8.18612367994371e-01	6.11830311865018e-01	6.64947304960849e-01	6.64894351709626e-01	6.38684487112171e-01	6.67783275311178e-01	6.50923543576255e-01	6.36567024704228e-01	6.38942153702537e-01	6.42614759793852e-01	6.47043085164569e-01	6.52356336202953e-01	8.80231839661636e-01	9.14990198948436e-01	9.97595080260411e-01	1.00864857330521e+00	1.02018770078840e+00	9.64605529905439e-01	9.61110068902666e-01	9.53316701978532e-01	9.93843053894040e-01	7.18774553230406e-01	7.34931874483344e-01	7.52958087631666e-01	6.35599431074729e-01	6.45282303014580e-01	6.42945531349320e-01	6.41004408431093e-01	1.07230399629033e+00	1.07831543211986e+00	1.08411288899761e+00	9.45948192751024e-01	9.41315697539498e-01	9.37259598029799e-01	7.76316728148642e-01	7.76727298883168e-01	1.28562055287648e+00	9.20390569732704e-01	1.08826127182318e+00	1.06465513709918e+00	9.56856223785975e-01	1.30617222946568e+00	1.11920208798854e+00	1.06988935391457e+00	1.06527897700872e+00	1.05874157190357e+00	1.07640926569782e+00	6.55132229143882e-01	1.26177023721854e+00	1.08342865119464e+00	1.19323776733117e+00	1.06377672654107e+00	1.08213054511283e+00	1.25613725140603e+00	6.12697164538827e-01	1.23007422878973e+00	1.12957932395424e+00	1.15374230741727e+00	9.96764875701560e-01	8.37801722115769e-01	1.10074651424222e+00	9.61358067712448e-01	9.35962339073124e-01	9.48403175383562e-01	7.94402831627887e-01	1.06751681148069e+00	6.63288030406486e-01	1.06631223490096e+00	1.06996530282612e+00	1.01101345879394e+00	6.80379664215748e-01	6.42171564950478e-01	1.08039264297547e+00	8.17441773063633e-01	1.05654782146793e+00	1.10108836569773e+00	1.07149432248487e+00	1.10387692103243e+00	1.05595004321241e+00	1.12232530071207e+00	9.48694655144275e-01	1.21791010086219e+00	9.53382548841966e-01	9.56264259442152e-01	1.14547736323696e+00	1.08807024280305e+00	1.16928200830743e+00	1.06390450461670e+00	6.59256652654414e-01	6.41628745066734e-01	1.28505882014910e+00	1.12268442392731e+00	6.49368373108192e-01	1.08927556681458e+00	6.42599217207433e-01	6.41411993841110e-01	6.41297235639607e-01	9.43777810923254e-01	9.46666984780446e-01	1.06286200331243e+00	1.16043582595218e+00	1.19701573486339e+00	1.24186184241695e+00	1.30311538794869e+00	1.07931437793828e+00	1.05213064611729e+00	1.07326119773195e+00	6.39446953271863e-01	1.03790564424686e+00	1.04775069862598e+00	1.06403599698023e+00	1.06933169952300e+00	9.68252541892185e-01	9.51867263635493e-01	1.07274047088117e+00	1.07388270297493e+00	1.07280705624514e+00	1.05122829784340e+00	1.05027735342303e+00	9.78460874099114e-01	9.88105156370433e-01	1.09602733156768e+00	9.52449132681847e-01	9.62188876599777e-01	9.65872595833246e-01	9.56012055004137e-01	1.06000240198803e+00	1.05486188767185e+00	8.63580823806585e-01	8.49690053963931e-01	9.53546297591586e-01	1.06087671566374e+00	1.06670746255104e+00	9.62122874237823e-01	9.70668062986541e-01	9.05270668419670e-01	8.90780144216718e-01	8.77210005314485e-01	9.50869072