# vtk DataFile Version 3.0
vtk output
ASCII
DATASET UNSTRUCTURED_GRID
POINTS 5233 float
9.997500e-001	-3.633067e-005	0.0	9.990000e-001	-1.453607e-004	0.0	9.977600e-001	-3.262754e-004	0.0	9.960200e-001	-5.832088e-004	0.0	9.937800e-001	-9.224577e-004	0.0	9.910500e-001	-1.352550e-003	0.0	9.878400e-001	-1.882804e-003	0.0	9.841300e-001	-2.522108e-003	0.0	9.799500e-001	-3.256631e-003	0.0	9.752800e-001	-4.059749e-003	0.0	9.701500e-001	-4.874812e-003	0.0	9.645400e-001	-5.641660e-003	0.0	9.584700e-001	-6.299945e-003	0.0	9.519400e-001	-6.817430e-003	0.0	9.449600e-001	-7.198278e-003	0.0	9.375400e-001	-7.484582e-003	0.0	9.296900e-001	-7.744915e-003	0.0	9.214000e-001	-8.057765e-003	0.0	9.127000e-001	-8.492905e-003	0.0	9.035800e-001	-9.103238e-003	0.0	8.940600e-001	-9.917046e-003	0.0	8.841500e-001	-1.094130e-002	0.0	8.738500e-001	-1.216768e-002	0.0	8.631800e-001	-1.357548e-002	0.0	8.521600e-001	-1.513919e-002	0.0	8.407700e-001	-1.683914e-002	0.0	8.290500e-001	-1.864928e-002	0.0	8.170100e-001	-2.055079e-002	0.0	8.046400e-001	-2.253061e-002	0.0	7.919700e-001	-2.457061e-002	0.0	7.790100e-001	-2.665586e-002	0.0	7.657800e-001	-2.876892e-002	0.0	7.522800e-001	-3.089410e-002	0.0	7.385200e-001	-3.301273e-002	0.0	7.245300e-001	-3.510227e-002	0.0	7.103200e-001	-3.714337e-002	0.0	6.958900e-001	-3.911898e-002	0.0	6.812700e-001	-4.100981e-002	0.0	6.664700e-001	-4.280213e-002	0.0	6.515000e-001	-4.448530e-002	0.0	6.363800e-001	-4.605107e-002	0.0	6.211300e-001	-4.749486e-002	0.0	6.057600e-001	-4.881633e-002	0.0	5.902800e-001	-5.001779e-002	0.0	5.747100e-001	-5.110302e-002	0.0	5.590600e-001	-5.207821e-002	0.0	5.433600e-001	-5.294944e-002	0.0	5.276100e-001	-5.372505e-002	0.0	5.118400e-001	-5.441179e-002	0.0	4.960500e-001	-5.501734e-002	0.0	4.802700e-001	-5.554741e-002	0.0	4.645100e-001	-5.600749e-002	0.0	4.487800e-001	-5.640182e-002	0.0	4.331100e-001	-5.673298e-002	0.0	4.175000e-001	-5.700302e-002	0.0	4.019700e-001	-5.721241e-002	0.0	3.865400e-001	-5.736064e-002	0.0	3.712300e-001	-5.744643e-002	0.0	3.560400e-001	-5.746787e-002	0.0	3.409900e-001	-5.742238e-002	0.0	3.261100e-001	-5.730722e-002	0.0	3.114000e-001	-5.711939e-002	0.0	2.968700e-001	-5.685581e-002	0.0	2.825500e-001	-5.651403e-002	0.0	2.684500e-001	-5.609163e-002	0.0	2.545700e-001	-5.558616e-002	0.0	2.409400e-001	-5.499672e-002	0.0	2.275700e-001	-5.432236e-002	0.0	2.144700e-001	-5.356270e-002	0.0	2.016600e-001	-5.271858e-002	0.0	1.891400e-001	-5.179015e-002	0.0	1.769300e-001	-5.077948e-002	0.0	1.650400e-001	-4.968848e-002	0.0	1.534900e-001	-4.852054e-002	0.0	1.422900e-001	-4.727862e-002	0.0	1.314400e-001	-4.596470e-002	0.0	1.209500e-001	-4.458189e-002	0.0	1.108500e-001	-4.313639e-002	0.0	1.011300e-001	-4.162892e-002	0.0	9.181000e-002	-4.006443e-002	0.0	8.290000e-002	-3.844642e-002	0.0	7.440000e-002	-3.677626e-002	0.0	6.633000e-002	-3.505893e-002	0.0	5.869000e-002	-3.329515e-002	0.0	5.149000e-002	-3.148738e-002	0.0	4.474000e-002	-2.963791e-002	0.0	3.844000e-002	-2.774590e-002	0.0	3.260000e-002	-2.581282e-002	0.0	2.723000e-002	-2.384029e-002	0.0	2.232000e-002	-2.182164e-002	0.0	1.790000e-002	-1.976632e-002	0.0	1.395000e-002	-1.766141e-002	0.0	1.049000e-002	-1.551256e-002	0.0	7.520000e-003	-1.331551e-002	0.0	5.040000e-003	-1.106433e-002	0.0	3.050000e-003	-8.749961e-003	0.0	1.560000e-003	-6.375443e-003	0.0	5.600000e-004	-3.906640e-003	0.0	6.000000e-005	-1.319873e-003	0.0	0.000000e+000	0.000000e+000	0.0	6.000000e-005	1.528290e-003	0.0	5.600000e-004	4.870649e-003	0.0	1.560000e-003	8.278902e-003	0.0	3.050000e-003	1.167791e-002	0.0	5.040000e-003	1.506246e-002	0.0	7.520000e-003	1.839405e-002	0.0	1.049000e-002	2.166183e-002	0.0	1.395000e-002	2.485687e-002	0.0	1.790000e-002	2.797198e-002	0.0	2.232000e-002	3.098871e-002	0.0	2.723000e-002	3.391840e-002	0.0	3.260000e-002	3.674187e-002	0.0	3.844000e-002	3.946512e-002	0.0	4.474000e-002	4.208377e-002	0.0	5.149000e-002	4.459513e-002	0.0	5.869000e-002	4.700085e-002	0.0	6.633000e-002	4.929938e-002	0.0	7.440000e-002	5.149004e-002	0.0	8.290000e-002	5.357513e-002	0.0	9.181000e-002	5.555234e-002	0.0	1.011300e-001	5.742451e-002	0.0	1.108500e-001	5.919232e-002	0.0	1.209500e-001	6.085521e-002	0.0	1.314400e-001	6.241778e-002	0.0	1.422900e-001	6.387855e-002	0.0	1.534900e-001	6.523965e-002	0.0	1.650400e-001	6.650436e-002	0.0	1.769300e-001	6.767469e-002	0.0	1.891400e-001	6.875195e-002	0.0	2.016600e-001	6.973860e-002	0.0	2.144700e-001	7.063646e-002	0.0	2.275700e-001	7.144875e-002	0.0	2.409400e-001	7.217720e-002	0.0	2.545700e-001	7.282403e-002	0.0	2.684500e-001	7.339116e-002	0.0	2.825500e-001	7.387941e-002	0.0	2.968700e-001	7.429032e-002	0.0	3.114000e-001	7.462433e-002	0.0	3.261100e-001	7.488082e-002	0.0	3.409900e-001	7.505894e-002	0.0	3.560400e-001	7.515693e-002	0.0	3.712300e-001	7.517185e-002	0.0	3.865400e-001	7.510010e-002	0.0	4.019700e-001	7.493700e-002	0.0	4.175000e-001	7.467705e-002	0.0	4.331100e-001	7.431408e-002	0.0	4.487800e-001	7.384144e-002	0.0	4.645100e-001	7.325137e-002	0.0	4.802700e-001	7.253694e-002	0.0	4.960500e-001	7.169072e-002	0.0	5.118400e-001	7.070560e-002	0.0	5.276100e-001	6.957669e-002	0.0	5.433600e-001	6.829848e-002	0.0	5.590600e-001	6.686949e-002	0.0	5.747100e-001	6.528792e-002	0.0	5.902800e-001	6.355751e-002	0.0	6.057600e-001	6.168302e-002	0.0	6.211300e-001	5.967364e-002	0.0	6.363800e-001	5.754063e-002	0.0	6.515000e-001	5.529838e-002	0.0	6.664700e-001	5.296576e-002	0.0	6.812700e-001	5.056440e-002	0.0	6.958900e-001	4.811625e-002	0.0	7.103200e-001	4.564416e-002	0.0	7.245300e-001	4.317446e-002	0.0	7.385200e-001	4.072714e-002	0.0	7.522800e-001	3.832167e-002	0.0	7.657800e-001	3.597781e-002	0.0	7.790100e-001	3.370793e-002	0.0	7.919700e-001	3.151859e-002	0.0	8.046400e-001	2.941591e-002	0.0	8.170100e-001	2.740125e-002	0.0	8.290500e-001	2.547749e-002	0.0	8.407700e-001	2.364118e-002	0.0	8.521600e-001	2.189413e-002	0.0	8.631800e-001	2.024613e-002	0.0	8.738500e-001	1.870214e-002	0.0	8.841500e-001	1.727663e-002	0.0	8.940600e-001	1.598453e-002	0.0	9.035800e-001	1.483370e-002	0.0	9.127000e-001	1.382253e-002	0.0	9.214000e-001	1.293287e-002	0.0	9.296900e-001	1.212249e-002	0.0	9.375400e-001	1.133471e-002	0.0	9.449600e-001	1.050125e-002	0.0	9.519400e-001	9.565817e-003	0.0	9.584700e-001	8.501771e-003	0.0	9.645400e-001	7.324916e-003	0.0	9.701500e-001	6.089717e-003	0.0	9.752800e-001	4.878942e-003	0.0	9.799500e-001	3.764910e-003	0.0	9.841300e-001	2.808566e-003	0.0	9.878400e-001	2.026038e-003	0.0	9.910500e-001	1.414655e-003	0.0	9.937800e-001	9.446936e-004	0.0	9.960200e-001	5.893182e-004	0.0	9.977600e-001	3.274014e-004	0.0	9.990000e-001	1.454630e-004	0.0	9.997500e-001	3.633228e-005	0.0	1.000000e+000	0.000000e+000	0.0	1.984229e+001	2.506660e+000	0.0	1.937166e+001	4.973800e+000	0.0	1.859553e+001	7.362490e+000	0.0	1.752613e+001	9.635070e+000	0.0	1.618034e+001	1.175571e+001	0.0	1.457937e+001	1.369094e+001	0.0	1.274848e+001	1.541027e+001	0.0	1.071654e+001	1.688656e+001	0.0	8.515590e+000	1.809654e+001	0.0	6.180340e+000	1.902113e+001	0.0	3.747630e+000	1.964575e+001	0.0	1.255810e+000	1.996053e+001	0.0	-1.255810e+000	1.996053e+001	0.0	-3.747630e+000	1.964574e+001	0.0	-6.180340e+000	1.902113e+001	0.0	-8.515590e+000	1.809654e+001	0.0	-1.071654e+001	1.688656e+001	0.0	-1.274848e+001	1.541026e+001	0.0	-1.457937e+001	1.369094e+001	0.0	-1.618034e+001	1.175570e+001	0.0	-1.752613e+001	9.635070e+000	0.0	-1.859553e+001	7.362490e+000	0.0	-1.937166e+001	4.973800e+000	0.0	-1.984229e+001	2.506660e+000	0.0	-2.000000e+001	0.000000e+000	0.0	-1.984229e+001	-2.506670e+000	0.0	-1.937166e+001	-4.973800e+000	0.0	-1.859553e+001	-7.362490e+000	0.0	-1.752613e+001	-9.635080e+000	0.0	-1.618034e+001	-1.175571e+001	0.0	-1.457937e+001	-1.369094e+001	0.0	-1.274848e+001	-1.541027e+001	0.0	-1.071653e+001	-1.688656e+001	0.0	-8.515580e+000	-1.809654e+001	0.0	-6.180340e+000	-1.902113e+001	0.0	-3.747620e+000	-1.964575e+001	0.0	-1.255810e+000	-1.996053e+001	0.0	1.255810e+000	-1.996053e+001	0.0	3.747630e+000	-1.964574e+001	0.0	6.180340e+000	-1.902113e+001	0.0	8.515590e+000	-1.809654e+001	0.0	1.071654e+001	-1.688656e+001	0.0	1.274848e+001	-1.541026e+001	0.0	1.457937e+001	-1.369094e+001	0.0	1.618034e+001	-1.175570e+001	0.0	1.752614e+001	-9.635070e+000	0.0	1.859553e+001	-7.362490e+000	0.0	1.937166e+001	-4.973790e+000	0.0	1.984229e+001	-2.506660e+000	0.0	2.000000e+001	0.000000e+000	0.0	6.094007e-002	-4.132638e-002	0.0	6.604048e-001	-5.706392e-002	0.0	4.258400e-001	8.868105e-002	0.0	6.904604e-001	6.262750e-002	0.0	3.791072e-001	-7.143963e-002	0.0	9.994556e-001	-7.298345e-004	0.0	9.985339e-001	-1.325633e-003	0.0	7.739214e-001	-3.980744e-002	0.0	6.900908e-001	-5.319598e-002	0.0	-1.718651e-003	7.556020e-003	0.0	7.469570e-001	-4.443294e-002	0.0	5.839761e-001	7.838239e-002	0.0	9.927577e-001	-3.632995e-003	0.0	9.898563e-001	-4.549053e-003	0.0	5.995777e-001	7.650579e-002	0.0	7.189827e-001	-4.893968e-002	0.0	-1.668813e-003	9.946973e-004	0.0	9.864636e-001	-5.560275e-003	0.0	9.825873e-001	-6.649735e-003	0.0	-1.469025e-003	-6.028121e-003	0.0	6.453065e-001	-5.882339e-002	0.0	8.243814e-001	-3.081853e-002	0.0	7.997547e-001	-3.523224e-002	0.0	3.485847e-001	8.890817e-002	0.0	8.476829e-001	-2.671774e-002	0.0	2.471776e-001	8.507889e-002	0.0	8.696055e-001	-2.305193e-002	0.0	9.463333e-003	2.627624e-002	0.0	8.900568e-001	-1.997156e-002	0.0	7.719980e-002	-4.553618e-002	0.0	9.089847e-001	-1.755634e-002	0.0	-2.039871e-003	-2.960840e-003	0.0	9.420004e-001	-1.409396e-002	0.0	9.263256e-001	-1.570486e-002	0.0	1.811125e-002	-2.498741e-002	0.0	4.257315e-001	-7.114025e-002	0.0	8.588250e-001	-2.481812e-002	0.0	9.559360e-001	-1.232016e-002	0.0	9.782182e-001	-7.817943e-003	0.0	9.680361e-001	-1.017245e-002	0.0	1.583242e-001	-5.973302e-002	0.0	8.997167e-001	-1.868204e-002	0.0	7.605757e-001	-4.212443e-002	0.0	9.971049e-001	-2.065590e-003	0.0	5.991886e-001	-6.333323e-002	0.0	4.414373e-001	-7.088344e-002	0.0	5.363717e-001	-6.758220e-002	0.0	4.730193e-001	-7.013217e-002	0.0	5.046987e-001	-6.904489e-002	0.0	4.888457e-001	-6.963167e-002	0.0	1.250553e-001	-5.495601e-002	0.0	2.804020e-002	-2.991811e-002	0.0	3.945544e-001	-7.141951e-002	0.0	4.642771e-002	-3.691
[...]
POINT_DATA 5233

SCALARS Density float 1
LOOKUP_TABLE default
1.183805e+000	1.157256e+000	1.144908e+000	1.134779e+000	1.125781e+000	1.116400e+000	1.104760e+000	1.089861e+000	1.071323e+000	1.049966e+000	1.028797e+000	1.013411e+000	1.008551e+000	1.014873e+000	1.029210e+000	1.046971e+000	1.064064e+000	1.077639e+000	1.086601e+000	1.091004e+000	1.091380e+000	1.088516e+000	1.083203e+000	1.076198e+000	1.068056e+000	1.059211e+000	1.049907e+000	1.040227e+000	1.030179e+000	1.019701e+000	1.008727e+000	9.972185e-001	9.851222e-001	9.725389e-001	9.595872e-001	9.464550e-001	9.334327e-001	9.207388e-001	9.086749e-001	8.973958e-001	8.871240e-001	8.781961e-001	8.709607e-001	8.656472e-001	8.622890e-001	8.606327e-001	8.602855e-001	8.608745e-001	8.619456e-001	8.632062e-001	8.643647e-001	8.652806e-001	8.658580e-001	8.659789e-001	8.655270e-001	8.644695e-001	8.628210e-001	8.606972e-001	8.581679e-001	8.552983e-001	8.522333e-001	8.491920e-001	8.465031e-001	8.444862e-001	8.434083e-001	8.433906e-001	8.444846e-001	8.465997e-001	8.496036e-001	8.532947e-001	8.575248e-001	8.622164e-001	8.673935e-001	8.730405e-001	8.790924e-001	8.853996e-001	8.919273e-001	8.987146e-001	9.057474e-001	9.130000e-001	9.205259e-001	9.283307e-001	9.364907e-001	9.450674e-001	9.541894e-001	9.640728e-001	9.749138e-001	9.870334e-001	1.000889e+000	1.016922e+000	1.035976e+000	1.059088e+000	1.087272e+000	1.122090e+000	1.164415e+000	1.213155e+000	1.263890e+000	1.319559e+000	1.344469e+000	1.348771e+000	1.354854e+000	1.343154e+000	1.307001e+000	1.264850e+000	1.214469e+000	1.162323e+000	1.111177e+000	1.062779e+000	1.018072e+000	9.777785e-001	9.418643e-001	9.099578e-001	8.818484e-001	8.569997e-001	8.350402e-001	8.156832e-001	7.984607e-001	7.829593e-001	7.690207e-001	7.565156e-001	7.454527e-001	7.357912e-001	7.272428e-001	7.193024e-001	7.117169e-001	7.046647e-001	6.985847e-001	6.934222e-001	6.888031e-001	6.843944e-001	6.802749e-001	6.766558e-001	6.736813e-001	6.712445e-001	6.691713e-001	6.672452e-001	6.653081e-001	6.632509e-001	6.609408e-001	6.583213e-001	6.553642e-001	6.521140e-001	6.485446e-001	6.444963e-001	6.397672e-001	6.343437e-001	6.282187e-001	6.215594e-001	6.143607e-001	6.068597e-001	5.990214e-001	5.907687e-001	5.821029e-001	5.730395e-001	5.640081e-001	5.552801e-001	5.469487e-001	5.387851e-001	5.317119e-001	5.253730e-001	5.211446e-001	5.177180e-001	5.197453e-001	6.147647e-001	8.661806e-001	9.994789e-001	1.001141e+000	1.000827e+000	1.006106e+000	1.010296e+000	1.013631e+000	1.016851e+000	1.019965e+000	1.023013e+000	1.026100e+000	1.029179e+000	1.032115e+000	1.034616e+000	1.036264e+000	1.036547e+000	1.034992e+000	1.031334e+000	1.025803e+000	1.019487e+000	1.014384e+000	1.013007e+000	1.017528e+000	1.028356e+000	1.043579e+000	1.059896e+000	1.074711e+000	1.086674e+000	1.095467e+000	1.101767e+000	1.106479e+000	1.111419e+000	1.116972e+000	1.125866e+000	1.131776e+000	1.140007e+000	9.982033e-001	9.995222e-001	9.996451e-001	9.994575e-001	9.993350e-001	9.991784e-001	9.989951e-001	9.987694e-001	9.985258e-001	9.983686e-001	9.982991e-001	9.984241e-001	9.986897e-001	9.991625e-001	9.995515e-001	9.998646e-001	1.000042e+000	1.000153e+000	1.000224e+000	1.000258e+000	1.000278e+000	1.000287e+000	1.000295e+000	1.000306e+000	1.000315e+000	1.000330e+000	1.000356e+000	1.000389e+000	1.000436e+000	1.000506e+000	1.000584e+000	1.000713e+000	1.000839e+000	1.001054e+000	1.001256e+000	1.001507e+000	1.001773e+000	1.001881e+000	1.001912e+000	1.001763e+000	1.001594e+000	1.001351e+000	1.001126e+000	1.000906e+000	1.000713e+000	1.000473e+000	1.000282e+000	1.000320e+000	9.989872e-001	9.972619e-001	9.525165e-001	9.084244e-001	6.433488e-001	5.150142e-001	8.649444e-001	1.158611e+000	1.149350e+000	1.003568e+000	9.316340e-001	1.324870e+000	9.807747e-001	5.695362e-001	1.118195e+000	1.107936e+000	5.608016e-001	9.563568e-001	1.348945e+000	1.095802e+000	1.081358e+000	1.304932e+000	8.978279e-001	1.043339e+000	1.024367e+000	6.617987e-001	1.060481e+000	6.784391e-001	1.074778e+000	1.117667e+000	1.083332e+000	9.344550e-001	1.081885e+000	1.334947e+000	1.041540e+000	1.067032e+000	1.052602e+000	8.687873e-001	1.068120e+000	1.022320e+000	1.064704e+000	1.031842e+000	8.770740e-001	1.084141e+000	9.924270e-001	1.137357e+000	8.736194e-001	8.689792e-001	8.648993e-001	8.681106e-001	8.663328e-001	8.673006e-001	8.963486e-001	1.014152e+000	8.667379e-001	9.733438e-001	8.680462e-001	8.545477e-001	8.602150e-001	9.988181e-001	8.497410e-001	1.054957e+000	8.831732e-001	8.616098e-001	9.261502e-001	9.105936e-001	8.663311e-001	8.714312e-001	8.800797e-001	1.080025e+000	1.031840e+000	1.127702e+000	1.140354e+000	1.031321e+000	1.076199e+000	1.029533e+000	1.047132e+000	1.294110e+000	1.052161e+000	8.490137e-001	8.650646e-001	9.686949e-001	1.014212e+000	9.033186e-001	8.537693e-001	8.690854e-001	9.197412e-001	9.624970e-001	1.179541e+000	1.077107e+000	8.627544e-001	8.662971e-001	1.196316e+000	8.509235e-001	9.182127e-001	8.518678e-001	8.481823e-001	8.687159e-001	9.439049e-001	1.348488e+000	1.265933e+000	5.959521e-001	1.344903e+000	9.576658e-001	8.497045e-001	8.975927e-001	7.452260e-001	6.479893e-001	1.112372e+000	6.040050e-001	6.256719e-001	1.055130e+000	1.031322e+000	1.035086e+000	6.188609e-001	6.380428e-001	6.555854e-001	1.029868e+000	1.035230e+000	7.950739e-001	1.067762e+000	1.024060e+000	1.022445e+000	7.671384e-001	8.295386e-001	6.713779e-001	6.758084e-001	7.052390e-001	6.669891e-001	6.321579e-001	6.520407e-001	7.190303e-001	7.359401e-001	5.439116e-001	6.945241e-001	6.853702e-001	5.308426e-001	5.784726e-001	1.002381e+000	7.238038e-001	1.012894e+000	1.004683e+000	1.025466e+000	1.019459e+000	1.035803e+000	1.031057e+000	1.021315e+000	1.033204e+000	1.042329e+000	1.028344e+000	1.033387e+000	1.016263e+000	1.022495e+000	9.990728e-001	1.009402e+000	5.333312e-001	1.004787e+000	5.361710e-001	5.225387e-001	5.873256e-001	5.521789e-001	6.897452e-001	6.816109e-001	7.116597e-001	6.996639e-001	8.722600e-001	7.272599e-001	1.073116e+000	9.259972e-001	8.574007e-001	1.210044e+000	1.022820e+000	1.034064e+000	8.574217e-001	8.654364e-001	1.254845e+000	9.927402e-001	1.163769e+000	7.803379e-001	8.114038e-001	6.735098e-001	7.554937e-001	1.078899e+000	1.087991e+000	6.692430e-001	1.095210e+000	1.101080e+000	6.645457e-001	6.588118e-001	1.025859e+000	1.139924e+000	1.119885e+000	1.127519e+000	8.882560e-001	9.853463e-001	1.106531e+000	6.116056e-001	1.222758e+000	1.106248e+000	9.432082e-001	8.896396e-001	8.484402e-001	8.254717e-001	1.303049e+000	1.329645e+000	8.544531e-001	9.422586e-001	1.073100e+000	1.144658e+000	5.844690e-001	9.308138e-001	1.009105e+000	1.099626e+000	8.603745e-001	1.060412e+000	1.045438e+000	9.321003e-001	1.285876e+000	8.623505e-001	1.086753e+000	1.033238e+000	8.879704e-001	9.539399e-001	9.091752e-001	8.722525e-001	9.408062e-001	8.693494e-001	1.076972e+000	1.018825e+000	1.157162e+000	1.038289e+000	5.354435e-001	1.024851e+000	7.674930e-001	5.224244e-001	7.205399e-001	1.032318e+000	1.088373e+000	6.686064e-001	6.169000e-001	1.030176e+000	1.034068e+000	1.094695e+000	1.034906e+000	1.071983e+000	6.880428e-001	6.713131e-001	6.920155e-001	7.796519e-001	9.197302e-001	8.665296e-001	1.116117e+000	7.366203e-001	8.871871e-001	1.051944e+000	1.100475e+000	1.035104e+000	8.818780e-001	1.164331e+000	1.112201e+000	1.106037e+000	1.197990e+000	1.274145e+000	1.178608e+000	1.335698e+000	1.341645e+000	1.062962e+000	1.187227e+000	9.597996e-001	1.138774e+000	1.119651e+000	6.518240e-001	8.700627e-001	1.087788e+000	1.071771e+000	5.759235e-001	1.110094e+000	1.317169e+000	8.722246e-001	6.559247e-001	1.053281e+000	6.788388e-001	1.066688e+000	1.075321e+000	9.499974e-001	1.076299e+000	1.067276e+000	1.040938e+000	1.024432e+000	1.034659e+000	1.037846e+000	1.074619e+000	9.013702e-001	9.881834e-001	9.988617e-001	1.129062e+000	8.719802e-001	8.715001e-001	8.708409e-001	1.042470e+000	8.707936e-001	8.717732e-001	8.629349e-001	9.944883e-001	1.059217e+000	1.049874e+000	8.944960e-001	9.238291e-001	8.711683e-001	8.832093e-001	1.047753e+000	1.060792e+000	9.655356e-001	9.770540e-001	9.160049e-001	9.085197e-001	8.735565e-001	8.775132e-001	9.818973e-001	9.704070e-001	1.113805e+000	8.653448e-001	8.675053e-001	8.763344e-001	8.712086e-001	8.588822e-001	8.562377e-001	8.558271e-001	8.579190e-001	8.545978e-001	1.342811e+000	1.215445e+000	9.119997e-001	1.080854e+000	6.092646e-001	6.238841e-001	6.305017e-001	6.364766e-001	1.062170e+000	1.042481e+000	1.032895e+000	6.421406e-001	6.472058e-001	6.596153e-001	1.034530e+000	1.028393e+000	8.440291e-001	8.645788e-001	6.846055e-001	6.815429e-001	7.280900e-001	7.462947e-001	7.565290e-001	1.012207e+000	1.000646e+000	9.119797e-001	1.008999e+000	1.021916e+000	1.035300e+000	1.030104e+000	1.027547e+000	1.018867e+000	1.015540e+000	1.002880e+000	9.969077e-001	5.891197e-001	5.201295e-001	5.434502e-001	5.501195e-001	5.929776e-001	6.012433e-001	5.584564e-001	5.669583e-001	6.964815e-001	7.016659e-001	7.074224e-001	7.137815e-001	1.076369e+000	9.394383e-001	9.698383e-001	1.028156e+000	1.037058e+000	8.702143e-001	8.698223e-001	1.237871e+000	1.002866e+000	7.933116e-001	8.085777e-001	6.738227e-001	6.762936e-001	6.628532e-001	6.658076e-001	1.028945e+000	1.030784e+000	8.905917e-001	8.993686e-001	1.008529e+000	1.252049e+000	8.539843e-001	1.297052e+000	8.740157e-001	8.607175e-001	1.014290e+000	8.756170e-001	1.065907e+000	1.088742e+000	1.082521e+000	1.044014e+000	1.222928e+000	1.094843e+000	1.118602e+000	1.127524e+000	1.130033e+000	1.163059e+000	1.071676e+000	1.324701e+000	9.385639e-001	1.060769e+000	1.103471e+000	6.000612e-001	1.150549e+000	1.177303e+000	9.528857e-001	1.240306e+000	9.637078e-001	1.094120e+000	1.064435e+000	1.147215e+000	8.663247e-001	1.059473e+000	9.420225e-001	1.113008e+000	1.119499e+000	1.067560e+000	6.229164e-001	1.034991e+000	5.485512e-001	1.099439e+000	6.300399e-001	6.877161e-001	6.760491e-001	7.386640e-001	8.591268e-001	1.125605e+000	1.266672e+000	1.280140e+000	1.079846e+000	1.308013e+000	1.044130e+000	9.475359e-001	1.335680e+000	8.932454e-001	8.760686e-001	1.051644e+000	1.151988e+000	1.024415e+000	1.013230e+000	5.421126e-001	1.075507e+000	1.038472e+000	1.034642e+000	1.033365e+000	6.788317e-001	6.845145e-001	6.994035e-001	7.933702e-001	9.210486e-001	9.313903e-001	8.718746e-001	1.115795e+000	7.471510e-001	1.059327e+000	1.104921e+000	1.188114e+000	1.255335e+000	1.208834e+000	1.316968e+000	1.033533e+000	1.165621e+000	1.154941e+000	1.050689e+000	1.093573e+000	5.920735e-001	8.760886e-001	6.604287e-001	1.046771e+000	1.053508e+000	1.068141e+000	1.070393e+000	9.672564e-001	9.570855e-001	1.070818e+000	1.069379e+000	1.043476e+000	1.041728e+000	1.082835e+000	9.952291e-001	1.004989e+000	1.121533e+000	8.759004e-001	8.756428e-001	8.751821e-001	8.758352e-001	1.017527e+000	1.054531e+000	1.048265e+000	9.069061e-001	8.998627e-001	8.767287e-001	8.788872e-001	1.060322e+000	1.071432e+000	9.745061e-001	9.850598e-001	9.300545e-001	9.218642e-001	9.141867e-001	8.824140e-001	8.875035e-001	1.003359e+000	9.903228e-001	9.782736e-001	8.685464e-001	8.706201e-001	8.724544e-001	8.873044e-001	8.817461e-001	8.765922e-001	8.678206e-001	8.644783e-001	8.621411e-001	8.640773e-001	8.620592e-001	9.267723e-001	6.361018e-001	6.418815e-001	1.051184e+000	6.470682e-001	6.519510e-001	6.563218e-001	6.641588e-001	1.034910e+000	8.797802e-001	9.024137e-001	6.911661e-001	6.951416e-001	7.569007e-001	7.684738e-001	7.807125e-001	1.009767e+000	1.035432e+000	1.035374e+000	1.031548e+000	1.029441e+000	1.027103e+000	1.021604e+000	1.018680e+000	1.015773e+000	1.008746e+000	1.000367e+000	1.004131e+000	7.457824e-001	5.400848e-001	5.173291e-001	5.581783e-001	6.078010e-001	6.158040e-001	5.660952e-001	5.747255e-001	5.830174e-001	7.042248e-001	7.094976e-001	7.157834e-001	7.228369e-001	7.306660e-001	9.528880e-001	9.816246e-001	1.023096e+000	1.031537e+000	1.039370e+000	8.753343e-001	8.752416e-001	1.012912e+000	1.045543e+000	8.073243e-001	8.230026e-001	8.402506e-001	6.816352e-001	6.676214e-001	6.706273e-001	6.733490e-001	1.033456e+000	1.033382e+000	1.034089e+000	8.941697e-001	9.021790e-001	9.112762e-001	8.605723e-001	8.601746e-001	1.277000e+000	9.452052e-001	1.098806e+000	1.071104e+000	8.819132e-001	1.304829e+000	1.137719e+000	1.060489e+000	1.056636e+000	1.041131e+000	1.088769e+000	6.430871e-001	1.249779e+000	1.113781e+000	1.172724e+000	1.045856e+000	1.093945e+000	1.259592e+000	5.658493e-001	1.236664e+000	1.128919e+000	1.169915e+000	1.018943e+000	8.996522e-001	1.078366e+000	8.792019e-001	9.544690e-001	8.805944e-001	8.679066e-001	1.077533e+000	6.164226e-001	1.041624e+000	1.038783e+000	1.011240e+000	7.601640e-001	6.994559e-001	1.097970e+000	8.943573e-001	1.057789e+000	1.109989e+000	1.083500e+000	1.122554e+000	1.061351e+000	1.099034e+000	9.523514e-001	1.199964e+000	9.630717e-001	9.726777e-001	1.122193e+000	1.106588e+000	1.146968e+000	1.023675e+000	6.358409e-001	6.882249e-001	1.285766e+000	1.145798e+000	5.519236e-001	1.033940e+000	6.852246e-001	6.917492e-001	6.952365e-001	9.322203e-001	9.429804e-001	1.064295e+000	1.177039e+000	1.207944e+000	1.226790e+000	1.297807e+000	1.058916e+000	1.054353e+000	1.088890e+000	6.082236e-001	1.047384e+000	1.053095e+000	1.061705e+000	1.064074e+000	9.745311e-001	9.641691e-001	1.065325e+000	1.065060e+000	1.063393e+000	1.048415e+000	1.049899e+000	1.001318e+000	1.010145e+000	1.114824e+000	8.806641e-001	8.807256e-001	8.799159e-001	8.803934e-001	1.052730e+000	1.049649e+000	9.132005e-001	9.057699e-001	8.850825e-001	1.069977e+000	1.079421e+000	9.826555e-001	9.932090e-001	9.364744e-001	9.282791e-001	9.207022e-001	8.870540e-001	8.928173e-001	1.025861e+000	1.011477e+000	9.979047e-001	9.856178e-001	8.727415e-001	8.746377e-001	8.763383e-001	8.778539e-001	8.937467e-001	8.881959e-001	8.829290e-001	8.783494e-001	8.743648e-001	8.708926e-001	8.691381e-001	8.712633e-001	6.484125e-001	1.057601e+000	1.051266e+000	6.534750e-001	6.578194e-001	6.621475e-001	6.659002e-001	6.697340e-001	9.167725e-001	9.409721e-001	7.036883e-001	7.087982e-001	7.698533e-001	7.810244e-001	7.942828e-001	8.082871e-001	1.036177e+000	1.035762e+000	1.035192e+000	1.032514e+000	1.030580e+000	1.028619e+000	1.025564e+000	1.021234e+000	1.017474e+000	1.014614e+000	1.008034e+000	1.009705e+000	1.013126e+000	9.024073e-001	6.246536e-001	5.512143e-001	5.325872e-001	6.305970e-001	6.219963e-001	5.753754e-001	5.825941e-001	5.922035e-001	5.985117e-001	7.137784e-001	7.196677e-001	7.256040e-001	7.330332e-001	7.411004e-001	7.503168e-001	9.658784e-001	9.919764e-001	1.026348e+000	1.034544e+000	1.041164e+000	8.807443e-001	8.801194e-001	8.817612e-001	1.021074e+000	1.051407e+000	1.081693e+000	8.225661e-001	8.379660e-001	8.554095e-001	8.742029e-001	6.731233e-001	6.765343e-001	6.794583e-001	6.821520e-001	1.036292e+000	1.037159e+000	1.036508e+000	8.975919e-001	9.060787e-001	9.133532e-001	9.235224e-001	8.689358e-001	8.676560e-001	8.672903e-001	1.123455e+000	1.095439e+000	1.063021e+000	1.126010e+000	1.145657e+000	9.757568e-001	9.522349e-001	1.168155e+000	1.067852e+000	1.214593e+000	1.064672e+000	9.072829e-001	7.851840e-001	1.140355e+000	1.220040e+000	1.281148e+000	1.316289e+000	1.316276e+000	1.309678e+000	1.234836e+000	1.118403e+000	6.958113e-001	1.069732e+000	1.101387e+000	1.055043e+000	1.017776e+000	8.844471e-001	1.088584e+000	1.037438e+000	1.041379e+000	6.342306e-001	6.461377e-001	5.716455e-001	1.017363e+000	6.558166e-001	8.891106e-001	6.910766e-001	1.083854e+000	9.616108e-001	1.119376e+000	1.073421e+000	1.308620e+000	1.162939e+000	1.152836e+000	1.057261e+000	1.048396e+000	1.257339e+000	1.111767e+000	1.191378e+000	1.047349e+000	1.241108e+000	1.134305e+000	1.151985e+000	1.102778e+000	8.754398e-001	8.752479e-001	1.078736e+000	6.239293e-001	1.043909e+000	1.093455e+000	9.574974e-001	1.263445e+000	6.983417e-001	7.039264e-001	7.069803e-001	9.387444e-001	1.167696e+000	1.194585e+000	1.275105e+000	1.083706e+000	1.047732e+000	1.052266e+000	1.055263e+000	1.058963e+000	9.714207e-001	9.822715e-001	1.059992e+000	1.061382e+000	1.060110e+000	1.059184e+000	1.054355e+000	1.057733e+000	1.003078e+000	1.108726e+000	8.850267e-001	8.860307e-001	8.842963e-001	8.854359e-001	1.053401e+000	1.053006e+000	9.194220e-001	9.116214e-001	1.077394e+000	1.085461e+000	9.909268e-001	9.430731e-001	9.342160e-001	9.286295e-001	8.950692e-001	1.033347e+000	1.018928e+000	1.005339e+000	9.936436e-001	8.777118e-001	8.785672e-001	8.808168e-001	8.815344e-001	8.835409e-001	8.999644e-001	8.956700e-001	8.889428e-001	8.857376e-001	8.805447e-001	1.062161e+000	1.056735e+000	1.051711e+000	6.595450e-001	6.648962e-001	6.677741e-001	6.724776e-001	6.749247e-001	9.308921e-001	9.544363e-001	7.136755e-001	7.174153e-001	7.927966e-001	8.079783e-001	8.234408e-001	1.036468e+000	1.035573e+000	1.034134e+000	1.032873e+000	1.030732e+000	1.029066e+000	1.026126e+000	1.022757e+000	1.018289e+000	1.011262e+000	9.985079e-001	6.579151e-001	5.617882e-001	5.961860e-001	6.116393e-001	7.252367e-001	7.294408e-001	7.383805e-001	7.432317e-001	7.539026e-001	7.631591e-001	7.737029e-001	9.784678e-001	1.002487e+000	1.029703e+000	1.036747e+000	1.041595e+000	8.861882e-001	8.863297e-001	1.028173e+000	1.056554e+000	1.083882e+000	8.388118e-001	8.543504e-001	8.711113e-001	8.906154e-001	9.104324e-001	6.792822e-001	6.815960e-001	6.857997e-001	6.890561e-001	1.039658e+000	1.038159e+000	9.056886e-001	9.208585e-001	8.787452e-001	8.752898e-001	8.751858e-001	8.737923e-001	1.143514e+000	1.115061e+000	1.162737e+000	1.288256e+000	1.162300e+000	1.076040e+000	1.079538e+000	1.243332e+000	1.051801e+000	1.121789e+000	1.089872e+000	1.256206e+000	1.069626e+000	1.142861e+000	7.001353e-001	1.127446e+000	1.158835e+000	1.223667e+000	1.123351e+000	1.069833e+000	8.940964e-001	1.074890e+000	8.816576e-001	1.055404e+000	1.056337e+000	9.201754e-001	9.590730e-001	9.104876e-001	1.220222e+000	8.891345e-001	9.796778e-001	9.695337e-001	8.151013e-001	1.065148e+000	1.037694e+000	1.260096e+000	1.134522e+000	1.064489e+000	1.122239e+000	1.069908e+000	1.313040e+000	1.238937e+000	1.096957e+000	9.858904e-001	6.612603e-001	6.685775e-001	1.083923e+000	1.142226e+000	1.097228e+000	1.285714e+000	1.156185e+000	1.054590e+000	1.202310e+000	1.182716e+000	6.398898e-001	1.086838e+000	1.048367e+000	1.045051e+000	6.510110e-001	7.086140e-001	7.190103e-001	9.704621e-001	1.182241e+000	1.204305e+000	1.105352e+000	1.048843e+000	1.054304e+000	9.896916e-001	1.057302e+000	1.057086e+000	1.060232e+000	1.103859e+000	8.900998e-001	1.055814e+000	1.057353e+000	9.221665e-001	1.082799e+000	9.985835e-001	1.010683e+000	9.460233e-001	9.348920e-001	8.988688e-001	1.040061e+000	1.025015e+000	1.011556e+000	1.002929e+000	8.839865e-001	8.865487e-001	8.888138e-001	8.990511e-001	8.898402e-001	1.060470e+000	1.056033e+000	6.761006e-001	6.827404e-001	9.660289e-001	7.313052e-001	8.378662e-001	1.011541e+000	1.034891e+000	1.031399e+000	1.027271e+000	1.023017e+000	1.019343e+000	1.009829e+000	1.027846e+000	8.681410e-001	6.016654e-001	5.716359e-001	6.007566e-001	6.150873e-001	6.304865e-001	7.454809e-001	7.611936e-001	7.775674e-001	7.851487e-001	7.995863e-001	9.900791e-001	1.012473e+000	1.023300e+000	1.034213e+000	1.042215e+000	8.914445e-001	8.921282e-001	1.034889e+000	1.060128e+000	1.085546e+000	1.109716e+000	8.553647e-001	8.711927e-001	8.873580e-001	9.058098e-001	9.282645e-001	9.434042e-001	6.889475e-001	6.952202e-001	1.042580e+000	1.040479e+000	9.074219e-001	9.360790e-001	9.533281e-001	8.837283e-001	8.811264e-001	1.087989e+000	1.145109e+000	1.140304e+000	1.102357e+000	1.025182e+000	1.079839e+000	1.126849e+000	1.117308e+000	1.174302e+000	1.122733e+000	1.127852e+000	1.109611e+000	1.171119e+000	1.240197e+000	1.238206e+000	1.058912e+000	9.941237e-001	7.068431e-001	1.093625e+000	1.054818e+000	1.089241e+000	9.675734e-001	1.150863e+000	1.157128e+000	8.941529e-001	1.057150e+000	9.347843e-001	9.031363e-001	1.075060e+000	1.080688e+000	1.073708e+000	1.060529e+000	1.122229e+000	1.071276e+000	1.075367e+000	1.051569e+000	7.259444e-001	6.458678e-001	9.662582e-001	9.963245e-001	1.111402e+000	1.115424e+000	1.293388e+000	1.069866e+000	1.055016e+000	1.157094e+000	1.086808e+000	1.224814e+000	1.139531e+000	8.992933e-001	1.222462e+000	9.887257e-001	9.762838e-001	1.067158e+000	1.268717e+000	1.065403e+000	1.093000e+000	9.812058e-001	1.264605e+000	1.156044e+000	1.008983e+000	1.206732e+000	1.190927e+000	6.