# vtk DataFile Version 3.0
vtk output
ASCII
DATASET UNSTRUCTURED_GRID
POINTS 5233 float
9.997500e-001	-3.632760e-005	0.0	9.990000e-001	-1.451676e-004	0.0	9.977600e-001	-3.241625e-004	0.0	9.960200e-001	-5.718389e-004	0.0	9.937800e-001	-8.815916e-004	0.0	9.910500e-001	-1.240466e-003	0.0	9.878400e-001	-1.630782e-003	0.0	9.841300e-001	-2.035350e-003	0.0	9.799500e-001	-2.432222e-003	0.0	9.752800e-001	-2.810206e-003	0.0	9.701500e-001	-3.162982e-003	0.0	9.645400e-001	-3.498341e-003	0.0	9.584700e-001	-3.829917e-003	0.0	9.519400e-001	-4.178028e-003	0.0	9.449600e-001	-4.564867e-003	0.0	9.375400e-001	-5.013365e-003	0.0	9.296900e-001	-5.546566e-003	0.0	9.214000e-001	-6.188757e-003	0.0	9.127000e-001	-6.959637e-003	0.0	9.035800e-001	-7.878363e-003	0.0	8.940600e-001	-8.955287e-003	0.0	8.841500e-001	-1.019387e-002	0.0	8.738500e-001	-1.159124e-002	0.0	8.631800e-001	-1.313552e-002	0.0	8.521600e-001	-1.481047e-002	0.0	8.407700e-001	-1.660460e-002	0.0	8.290500e-001	-1.849780e-002	0.0	8.170100e-001	-2.047648e-002	0.0	8.046400e-001	-2.253288e-002	0.0	7.919700e-001	-2.465489e-002	0.0	7.790100e-001	-2.683518e-002	0.0	7.657800e-001	-2.906538e-002	0.0	7.522800e-001	-3.134027e-002	0.0	7.385200e-001	-3.365217e-002	0.0	7.245300e-001	-3.598881e-002	0.0	7.103200e-001	-3.833998e-002	0.0	6.958900e-001	-4.069593e-002	0.0	6.812700e-001	-4.304106e-002	0.0	6.664700e-001	-4.536259e-002	0.0	6.515000e-001	-4.764764e-002	0.0	6.363800e-001	-4.988217e-002	0.0	6.211300e-001	-5.205303e-002	0.0	6.057600e-001	-5.414963e-002	0.0	5.902800e-001	-5.616257e-002	0.0	5.747100e-001	-5.808253e-002	0.0	5.590600e-001	-5.990288e-002	0.0	5.433600e-001	-6.161607e-002	0.0	5.276100e-001	-6.321917e-002	0.0	5.118400e-001	-6.470707e-002	0.0	4.960500e-001	-6.607842e-002	0.0	4.802700e-001	-6.732974e-002	0.0	4.645100e-001	-6.845971e-002	0.0	4.487800e-001	-6.946706e-002	0.0	4.331100e-001	-7.034939e-002	0.0	4.175000e-001	-7.110605e-002	0.0	4.019700e-001	-7.173509e-002	0.0	3.865400e-001	-7.223464e-002	0.0	3.712300e-001	-7.260295e-002	0.0	3.560400e-001	-7.283868e-002	0.0	3.409900e-001	-7.294002e-002	0.0	3.261100e-001	-7.290561e-002	0.0	3.114000e-001	-7.273449e-002	0.0	2.968700e-001	-7.242585e-002	0.0	2.825500e-001	-7.197991e-002	0.0	2.684500e-001	-7.139720e-002	0.0	2.545700e-001	-7.067820e-002	0.0	2.409400e-001	-6.982553e-002	0.0	2.275700e-001	-6.884168e-002	0.0	2.144700e-001	-6.772972e-002	0.0	2.016600e-001	-6.649435e-002	0.0	1.891400e-001	-6.513900e-002	0.0	1.769300e-001	-6.366968e-002	0.0	1.650400e-001	-6.209195e-002	0.0	1.534900e-001	-6.041332e-002	0.0	1.422900e-001	-5.864051e-002	0.0	1.314400e-001	-5.677871e-002	0.0	1.209500e-001	-5.483470e-002	0.0	1.108500e-001	-5.281947e-002	0.0	1.011300e-001	-5.073630e-002	0.0	9.181000e-002	-4.859436e-002	0.0	8.290000e-002	-4.640069e-002	0.0	7.440000e-002	-4.415943e-002	0.0	6.633000e-002	-4.187947e-002	0.0	5.869000e-002	-3.956388e-002	0.0	5.149000e-002	-3.721781e-002	0.0	4.474000e-002	-3.484595e-002	0.0	3.844000e-002	-3.244864e-002	0.0	3.260000e-002	-3.002883e-002	0.0	2.723000e-002	-2.758916e-002	0.0	2.232000e-002	-2.512168e-002	0.0	1.790000e-002	-2.263771e-002	0.0	1.395000e-002	-2.012106e-002	0.0	1.049000e-002	-1.757774e-002	0.0	7.520000e-003	-1.500190e-002	0.0	5.040000e-003	-1.238633e-002	0.0	3.050000e-003	-9.721625e-003	0.0	1.560000e-003	-7.015135e-003	0.0	5.600000e-004	-4.238461e-003	0.0	6.000000e-005	-1.394763e-003	0.0	0.000000e+000	0.000000e+000	0.0	6.000000e-005	1.475578e-003	0.0	5.600000e-004	4.623421e-003	0.0	1.560000e-003	7.784830e-003	0.0	3.050000e-003	1.091190e-002	0.0	5.040000e-003	1.401275e-002	0.0	7.520000e-003	1.706187e-002	0.0	1.049000e-002	2.005742e-002	0.0	1.395000e-002	2.299803e-002	0.0	1.790000e-002	2.588290e-002	0.0	2.232000e-002	2.869960e-002	0.0	2.723000e-002	3.146248e-002	0.0	3.260000e-002	3.415623e-002	0.0	3.844000e-002	3.678830e-002	0.0	4.474000e-002	3.935542e-002	0.0	5.149000e-002	4.185493e-002	0.0	5.869000e-002	4.428771e-002	0.0	6.633000e-002	4.665064e-002	0.0	7.440000e-002	4.894074e-002	0.0	8.290000e-002	5.115750e-002	0.0	9.181000e-002	5.329491e-002	0.0	1.011300e-001	5.535190e-002	0.0	1.108500e-001	5.732462e-002	0.0	1.209500e-001	5.920731e-002	0.0	1.314400e-001	6.099963e-002	0.0	1.422900e-001	6.269398e-002	0.0	1.534900e-001	6.428649e-002	0.0	1.650400e-001	6.577442e-002	0.0	1.769300e-001	6.715335e-002	0.0	1.891400e-001	6.841787e-002	0.0	2.016600e-001	6.956391e-002	0.0	2.144700e-001	7.058672e-002	0.0	2.275700e-001	7.148335e-002	0.0	2.409400e-001	7.224951e-002	0.0	2.545700e-001	7.288200e-002	0.0	2.684500e-001	7.337791e-002	0.0	2.825500e-001	7.373431e-002	0.0	2.968700e-001	7.394987e-002	0.0	3.114000e-001	7.402342e-002	0.0	3.261100e-001	7.395466e-002	0.0	3.409900e-001	7.374445e-002	0.0	3.560400e-001	7.339422e-002	0.0	3.712300e-001	7.290712e-002	0.0	3.865400e-001	7.228757e-002	0.0	4.019700e-001	7.154031e-002	0.0	4.175000e-001	7.067206e-002	0.0	4.331100e-001	6.969088e-002	0.0	4.487800e-001	6.860604e-002	0.0	4.645100e-001	6.742630e-002	0.0	4.802700e-001	6.616330e-002	0.0	4.960500e-001	6.482766e-002	0.0	5.118400e-001	6.342996e-002	0.0	5.276100e-001	6.198230e-002	0.0	5.433600e-001	6.049330e-002	0.0	5.590600e-001	5.897319e-002	0.0	5.747100e-001	5.742765e-002	0.0	5.902800e-001	5.586331e-002	0.0	6.057600e-001	5.428247e-002	0.0	6.211300e-001	5.268588e-002	0.0	6.363800e-001	5.107069e-002	0.0	6.515000e-001	4.943152e-002	0.0	6.664700e-001	4.776190e-002	0.0	6.812700e-001	4.605373e-002	0.0	6.958900e-001	4.429687e-002	0.0	7.103200e-001	4.248102e-002	0.0	7.245300e-001	4.059935e-002	0.0	7.385200e-001	3.864317e-002	0.0	7.522800e-001	3.660794e-002	0.0	7.657800e-001	3.449610e-002	0.0	7.790100e-001	3.231194e-002	0.0	7.919700e-001	3.006301e-002	0.0	8.046400e-001	2.776522e-002	0.0	8.170100e-001	2.543740e-002	0.0	8.290500e-001	2.310569e-002	0.0	8.407700e-001	2.079019e-002	0.0	8.521600e-001	1.851405e-002	0.0	8.631800e-001	1.630314e-002	0.0	8.738500e-001	1.416556e-002	0.0	8.841500e-001	1.211058e-002	0.0	8.940600e-001	1.014184e-002	0.0	9.035800e-001	8.257916e-003	0.0	9.127000e-001	6.466255e-003	0.0	9.214000e-001	4.792372e-003	0.0	9.296900e-001	3.278797e-003	0.0	9.375400e-001	1.996519e-003	0.0	9.449600e-001	1.016778e-003	0.0	9.519400e-001	3.969570e-004	0.0	9.584700e-001	1.483656e-004	0.0	9.645400e-001	2.183643e-004	0.0	9.701500e-001	4.958485e-004	0.0	9.752800e-001	8.390331e-004	0.0	9.799500e-001	1.120313e-003	0.0	9.841300e-001	1.255984e-003	0.0	9.878400e-001	1.225500e-003	0.0	9.910500e-001	1.059672e-003	0.0	9.937800e-001	8.155340e-004	0.0	9.960200e-001	5.534338e-004	0.0	9.977600e-001	3.207390e-004	0.0	9.990000e-001	1.448547e-004	0.0	9.997500e-001	3.632264e-005	0.0	1.000000e+000	0.000000e+000	0.0	1.984229e+001	2.506660e+000	0.0	1.937166e+001	4.973800e+000	0.0	1.859553e+001	7.362490e+000	0.0	1.752613e+001	9.635070e+000	0.0	1.618034e+001	1.175571e+001	0.0	1.457937e+001	1.369094e+001	0.0	1.274848e+001	1.541027e+001	0.0	1.071654e+001	1.688656e+001	0.0	8.515590e+000	1.809654e+001	0.0	6.180340e+000	1.902113e+001	0.0	3.747630e+000	1.964575e+001	0.0	1.255810e+000	1.996053e+001	0.0	-1.255810e+000	1.996053e+001	0.0	-3.747630e+000	1.964574e+001	0.0	-6.180340e+000	1.902113e+001	0.0	-8.515590e+000	1.809654e+001	0.0	-1.071654e+001	1.688656e+001	0.0	-1.274848e+001	1.541026e+001	0.0	-1.457937e+001	1.369094e+001	0.0	-1.618034e+001	1.175570e+001	0.0	-1.752613e+001	9.635070e+000	0.0	-1.859553e+001	7.362490e+000	0.0	-1.937166e+001	4.973800e+000	0.0	-1.984229e+001	2.506660e+000	0.0	-2.000000e+001	0.000000e+000	0.0	-1.984229e+001	-2.506670e+000	0.0	-1.937166e+001	-4.973800e+000	0.0	-1.859553e+001	-7.362490e+000	0.0	-1.752613e+001	-9.635080e+000	0.0	-1.618034e+001	-1.175571e+001	0.0	-1.457937e+001	-1.369094e+001	0.0	-1.274848e+001	-1.541027e+001	0.0	-1.071653e+001	-1.688656e+001	0.0	-8.515580e+000	-1.809654e+001	0.0	-6.180340e+000	-1.902113e+001	0.0	-3.747620e+000	-1.964575e+001	0.0	-1.255810e+000	-1.996053e+001	0.0	1.255810e+000	-1.996053e+001	0.0	3.747630e+000	-1.964574e+001	0.0	6.180340e+000	-1.902113e+001	0.0	8.515590e+000	-1.809654e+001	0.0	1.071654e+001	-1.688656e+001	0.0	1.274848e+001	-1.541026e+001	0.0	1.457937e+001	-1.369094e+001	0.0	1.618034e+001	-1.175570e+001	0.0	1.752614e+001	-9.635070e+000	0.0	1.859553e+001	-7.362490e+000	0.0	1.937166e+001	-4.973790e+000	0.0	1.984229e+001	-2.506660e+000	0.0	2.000000e+001	0.000000e+000	0.0	6.051484e-002	-4.781751e-002	0.0	6.607936e-001	-6.008332e-002	0.0	4.260839e-001	8.438714e-002	0.0	6.902708e-001	5.840556e-002	0.0	3.792569e-001	-8.626292e-002	0.0	9.994596e-001	-6.949301e-004	0.0	9.985504e-001	-1.273144e-003	0.0	7.741036e-001	-4.011744e-002	0.0	6.904212e-001	-5.516852e-002	0.0	-1.687075e-003	7.172890e-003	0.0	7.471785e-001	-4.509549e-002	0.0	5.839262e-001	7.092430e-002	0.0	9.927751e-001	-3.465495e-003	0.0	9.898600e-001	-4.274916e-003	0.0	5.994878e-001	6.925791e-002	0.0	7.192545e-001	-5.013581e-002	0.0	-1.701446e-003	8.902541e-004	0.0	9.864463e-001	-5.114466e-003	0.0	9.825446e-001	-5.959399e-003	0.0	-1.593217e-003	-6.549958e-003	0.0	6.457216e-001	-6.246400e-002	0.0	8.245156e-001	-3.068570e-002	0.0	7.999085e-001	-3.529889e-002	0.0	3.487866e-001	8.721837e-002	0.0	8.478031e-001	-2.637852e-002	0.0	2.472189e-001	8.495821e-002	0.0	8.697124e-001	-2.245600e-002	0.0	9.597365e-003	2.466187e-002	0.0	8.901453e-001	-1.902436e-002	0.0	7.675705e-002	-5.313962e-002	0.0	9.090424e-001	-1.613963e-002	0.0	-2.091324e-003	-3.223345e-003	0.0	9.419499e-001	-1.179751e-002	0.0	9.263348e-001	-1.376780e-002	0.0	1.779729e-002	-2.804231e-002	0.0	4.259961e-001	-8.482236e-002	0.0	8.589388e-001	-2.435959e-002	0.0	9.558378e-001	-1.008059e-002	0.0	9.781489e-001	-6.813476e-003	0.0	9.679304e-001	-8.454332e-003	0.0	1.579104e-001	-7.177170e-002	0.0	8.997919e-001	-1.751375e-002	0.0	7.607760e-001	-4.259253e-002	0.0	9.971289e-001	-1.990698e-003	0.0	5.996588e-001	-6.914917e-002	0.0	4.417368e-001	-8.405854e-002	0.0	5.368330e-001	-7.663052e-002	0.0	4.733834e-001	-8.211811e-002	0.0	5.051189e-001	-7.963862e-002	0.0	4.892391e-001	-8.094474e-002	0.0	1.246096e-001	-6.539410e-002	0.0	2.768696e-002	-3.386557e-002	0.0	3.947440e-001	-8.592721e-002	0.0	4.602633e-002	-4.234
[...]
POINT_DATA 5233

SCALARS Density float 1
LOOKUP_TABLE default
1.151004e+000	1.127698e+000	1.112299e+000	1.098645e+000	1.086131e+000	1.074936e+000	1.065412e+000	1.058557e+000	1.054983e+000	1.054752e+000	1.057349e+000	1.061786e+000	1.067101e+000	1.072511e+000	1.077504e+000	1.081762e+000	1.085067e+000	1.087225e+000	1.088047e+000	1.087432e+000	1.085344e+000	1.081901e+000	1.077281e+000	1.071777e+000	1.065649e+000	1.059161e+000	1.052518e+000	1.045826e+000	1.039152e+000	1.032483e+000	1.025774e+000	1.018976e+000	1.012008e+000	1.004866e+000	9.975884e-001	9.901779e-001	9.828376e-001	9.759746e-001	9.699803e-001	9.640327e-001	9.581310e-001	9.590087e-001	9.710322e-001	9.639184e-001	8.355398e-001	6.791559e-001	6.354730e-001	6.501610e-001	6.630682e-001	6.701113e-001	6.741590e-001	6.790565e-001	6.846949e-001	6.903355e-001	6.957898e-001	7.013625e-001	7.073982e-001	7.139250e-001	7.208855e-001	7.281885e-001	7.358669e-001	7.439059e-001	7.522924e-001	7.610297e-001	7.700979e-001	7.795260e-001	7.893356e-001	7.994855e-001	8.098544e-001	8.203489e-001	8.309167e-001	8.416298e-001	8.525932e-001	8.638654e-001	8.753756e-001	8.869755e-001	8.986208e-001	9.103748e-001	9.222467e-001	9.342156e-001	9.463474e-001	9.586497e-001	9.711990e-001	9.840649e-001	9.973720e-001	1.011317e+000	1.026092e+000	1.042021e+000	1.059557e+000	1.079100e+000	1.101334e+000	1.127050e+000	1.156753e+000	1.190992e+000	1.229290e+000	1.269937e+000	1.307043e+000	1.340912e+000	1.351773e+000	1.347682e+000	1.346193e+000	1.325450e+000	1.278243e+000	1.230137e+000	1.177466e+000	1.126294e+000	1.079164e+000	1.037153e+000	1.000263e+000	9.683741e-001	9.408626e-001	9.168848e-001	8.959373e-001	8.774097e-001	8.608678e-001	8.459899e-001	8.323509e-001	8.196135e-001	8.076783e-001	7.964401e-001	7.858680e-001	7.758161e-001	7.659891e-001	7.561299e-001	7.462700e-001	7.366979e-001	7.276667e-001	7.189388e-001	7.101552e-001	7.011255e-001	6.920864e-001	6.832588e-001	6.747851e-001	6.665808e-001	6.585908e-001	6.507050e-001	6.428848e-001	6.351684e-001	6.274971e-001	6.199673e-001	6.126803e-001	6.059057e-001	5.998050e-001	5.942856e-001	5.891178e-001	5.842912e-001	5.798540e-001	5.760558e-001	5.729151e-001	5.706774e-001	5.692913e-001	5.685802e-001	5.684565e-001	5.686082e-001	5.690133e-001	5.693894e-001	5.701112e-001	5.706839e-001	5.728229e-001	5.694957e-001	5.615393e-001	5.935702e-001	7.606675e-001	9.677705e-001	9.955503e-001	9.851983e-001	9.836354e-001	9.884206e-001	9.931577e-001	9.987761e-001	1.005880e+000	1.013874e+000	1.022340e+000	1.030968e+000	1.039458e+000	1.047652e+000	1.055477e+000	1.063131e+000	1.070918e+000	1.079327e+000	1.088690e+000	1.099023e+000	1.109700e+000	1.119585e+000	1.127096e+000	1.130577e+000	1.128509e+000	1.119883e+000	1.104600e+000	1.084364e+000	1.063432e+000	1.047046e+000	1.040114e+000	1.044446e+000	1.057448e+000	1.074701e+000	1.092845e+000	1.111658e+000	1.130868e+000	1.124847e+000	9.980458e-001	9.995452e-001	9.997431e-001	9.995877e-001	9.995098e-001	9.994042e-001	9.992772e-001	9.991177e-001	9.989426e-001	9.988357e-001	9.987996e-001	9.989167e-001	9.991442e-001	9.995247e-001	9.998309e-001	1.000067e+000	1.000194e+000	1.000268e+000	1.000308e+000	1.000323e+000	1.000329e+000	1.000329e+000	1.000329e+000	1.000334e+000	1.000339e+000	1.000350e+000	1.000372e+000	1.000400e+000	1.000441e+000	1.000500e+000	1.000567e+000	1.000672e+000	1.000771e+000	1.000934e+000	1.001076e+000	1.001240e+000	1.001400e+000	1.001443e+000	1.001438e+000	1.001313e+000	1.001182e+000	1.001001e+000	1.000832e+000	1.000666e+000	1.000523e+000	1.000331e+000	1.000170e+000	1.000255e+000	9.988674e-001	9.970148e-001	9.892859e-001	9.714970e-001	5.928628e-001	6.316307e-001	7.180037e-001	1.131750e+000	1.119716e+000	1.024114e+000	9.829087e-001	1.306976e+000	1.010704e+000	5.702599e-001	1.083607e+000	1.074442e+000	5.707804e-001	9.967817e-001	1.344900e+000	1.067051e+000	1.062138e+000	1.326033e+000	9.655627e-001	1.049789e+000	1.037071e+000	6.247642e-001	1.062098e+000	6.804379e-001	1.073093e+000	1.092116e+000	1.081174e+000	9.630331e-001	1.084887e+000	1.345230e+000	1.078412e+000	1.083734e+000	1.111252e+000	7.000278e-001	1.067848e+000	1.070436e+000	1.059905e+000	1.062593e+000	8.673809e-001	1.083647e+000	1.017479e+000	1.105985e+000	9.862953e-001	6.944846e-001	6.477641e-001	6.832333e-001	6.742756e-001	6.786139e-001	9.021818e-001	1.068266e+000	7.115343e-001	1.017701e+000	7.056174e-001	7.479117e-001	7.322101e-001	1.049958e+000	7.650307e-001	1.081510e+000	8.788272e-001	8.347406e-001	9.504428e-001	9.259260e-001	7.367555e-001	8.562340e-001	9.692366e-001	1.077609e+000	1.088537e+000	1.094251e+000	1.197508e+000	1.016705e+000	1.084901e+000	1.074627e+000	1.060234e+000	1.269957e+000	1.056026e+000	7.932140e-001	6.458428e-001	1.003777e+000	1.030633e+000	9.139816e-001	8.136558e-001	9.470101e-001	9.768963e-001	1.003146e+000	1.231809e+000	1.136816e+000	7.249002e-001	8.453946e-001	1.164676e+000	8.033015e-001	9.380889e-001	7.563068e-001	7.834639e-001	6.887284e-001	9.897056e-001	1.337069e+000	1.300005e+000	5.703172e-001	1.346526e+000	9.569836e-001	8.734150e-001	9.103361e-001	7.836117e-001	5.983695e-001	1.087885e+000	5.712656e-001	5.788215e-001	1.090992e+000	1.114378e+000	1.067860e+000	5.755135e-001	5.876821e-001	6.105378e-001	1.101543e+000	1.083885e+000	8.295686e-001	1.075851e+000	1.119455e+000	1.116284e+000	8.051994e-001	8.576056e-001	6.561239e-001	6.722018e-001	7.340158e-001	6.402755e-001	5.829943e-001	6.042535e-001	7.527985e-001	7.732396e-001	5.736727e-001	7.159797e-001	6.977325e-001	5.669111e-001	5.698734e-001	9.875323e-001	1.008284e+000	1.006964e+000	9.962750e-001	1.037485e+000	1.021639e+000	1.075633e+000	1.052922e+000	1.119858e+000	1.092651e+000	1.104582e+000	1.045321e+000	1.060387e+000	1.014012e+000	1.029548e+000	9.917622e-001	1.000947e+000	9.222114e-001	9.939190e-001	5.733670e-001	5.705296e-001	5.698459e-001	5.712685e-001	7.068238e-001	6.889571e-001	7.431895e-001	7.250634e-001	8.908483e-001	7.629310e-001	1.052394e+000	9.322613e-001	8.241596e-001	1.180651e+000	1.066233e+000	1.043449e+000	7.398827e-001	6.640280e-001	1.227025e+000	9.849603e-001	1.135170e+000	8.169699e-001	8.430550e-001	6.641083e-001	7.941630e-001	1.062612e+000	1.054793e+000	6.481808e-001	1.054658e+000	1.061638e+000	6.324948e-001	6.173950e-001	1.109784e+000	1.144084e+000	1.103626e+000	1.118013e+000	9.613814e-001	1.033219e+000	1.073583e+000	5.729729e-001	1.267145e+000	1.165637e+000	9.759490e-001	8.904715e-001	7.740867e-001	8.544481e-001	1.286642e+000	1.317878e+000	7.791496e-001	9.894963e-001	1.082042e+000	1.194077e+000	5.719541e-001	9.832733e-001	1.028811e+000	1.074560e+000	7.530648e-001	1.064026e+000	1.052980e+000	9.546801e-001	1.308035e+000	8.288305e-001	1.139281e+000	1.069610e+000	8.829996e-001	9.961922e-001	9.734847e-001	6.994086e-001	9.674257e-001	7.233108e-001	1.079640e+000	1.034968e+000	1.134376e+000	1.026968e+000	5.586375e-001	1.035886e+000	8.036381e-001	5.844593e-001	7.511698e-001	1.057632e+000	1.064166e+000	6.385901e-001	5.768600e-001	1.110643e+000	1.064683e+000	1.066294e+000	1.108357e+000	1.074182e+000	6.961306e-001	6.466214e-001	7.049106e-001	8.151346e-001	9.781106e-001	8.394185e-001	1.095958e+000	7.708457e-001	9.039655e-001	1.094232e+000	1.073272e+000	1.071821e+000	8.717270e-001	1.157910e+000	1.094695e+000	1.083094e+000	1.174178e+000	1.253150e+000	1.223996e+000	1.340532e+000	1.340474e+000	1.115196e+000	1.166897e+000	9.940038e-001	1.110246e+000	1.090058e+000	6.038114e-001	6.485700e-001	1.069123e+000	1.073323e+000	5.722302e-001	1.081512e+000	1.330019e+000	7.053146e-001	6.101143e-001	1.058676e+000	6.709321e-001	1.068985e+000	1.076911e+000	9.804933e-001	1.081335e+000	1.081718e+000	1.075775e+000	1.073584e+000	1.072730e+000	1.066846e+000	1.065751e+000	9.062898e-001	1.016065e+000	1.022494e+000	1.099676e+000	6.938413e-001	6.888405e-001	6.832573e-001	1.093498e+000	7.170429e-001	7.111128e-001	7.450545e-001	1.038586e+000	1.080476e+000	1.078436e+000	8.945599e-001	9.422312e-001	6.884939e-001	9.777912e-001	1.064928e+000	1.064430e+000	1.002839e+000	1.009546e+000	9.300861e-001	9.181051e-001	8.738447e-001	9.813295e-001	1.022932e+000	1.008143e+000	1.165490e+000	7.374200e-001	7.301751e-001	8.608092e-001	8.500802e-001	8.183619e-001	8.081157e-001	7.701334e-001	7.614130e-001	7.981342e-001	1.336529e+000	1.254770e+000	9.236253e-001	1.066830e+000	5.746322e-001	5.797029e-001	5.833915e-001	5.875356e-001	1.084072e+000	1.102740e+000	1.093814e+000	5.924859e-001	5.978668e-001	6.168257e-001	1.086497e+000	1.109735e+000	8.695575e-001	8.860269e-001	6.875964e-001	6.791610e-001	7.607843e-001	7.815791e-001	7.925371e-001	1.008571e+000	9.910171e-001	1.000268e+000	1.003495e+000	1.028628e+000	1.079078e+000	1.050464e+000	1.043232e+000	1.021540e+000	1.014768e+000	9.999596e-001	9.959149e-001	1.004143e+000	8.028766e-001	5.732800e-001	5.737906e-001	5.722567e-001	5.730404e-001	5.742425e-001	5.727312e-001	7.137903e-001	7.229982e-001	7.323307e-001	7.418007e-001	1.060120e+000	9.454872e-001	9.699702e-001	1.041085e+000	1.047114e+000	6.759687e-001	6.608139e-001	1.214777e+000	9.970855e-001	8.273226e-001	8.403835e-001	6.546187e-001	6.627347e-001	6.237101e-001	6.309556e-001	1.106150e+000	1.100581e+000	9.668272e-001	9.685213e-001	1.055356e+000	1.284075e+000	7.884939e-001	1.311187e+000	7.296130e-001	7.849161e-001	1.032939e+000	6.618686e-001	1.079279e+000	1.071258e+000	1.070990e+000	1.099012e+000	1.204221e+000	1.075332e+000	1.106408e+000	1.123063e+000	1.103101e+000	1.148195e+000	1.118252e+000	1.318958e+000	9.596168e-001	1.078808e+000	1.080825e+000	5.756723e-001	1.121991e+000	1.216692e+000	9.955493e-001	1.268926e+000	1.001883e+000	1.140487e+000	1.069258e+000	1.190184e+000	7.589123e-001	1.065068e+000	9.893786e-001	1.087892e+000	1.164736e+000	1.079898e+000	5.815344e-001	1.102907e+000	5.631857e-001	1.081716e+000	5.850898e-001	6.868594e-001	6.534981e-001	7.702127e-001	8.819812e-001	1.116254e+000	1.288443e+000	1.265738e+000	1.066917e+000	1.297325e+000	1.069643e+000	9.723526e-001	1.335088e+000	8.879136e-001	7.052686e-001	1.097514e+000	1.133792e+000	1.034838e+000	1.010711e+000	5.756137e-001	1.074062e+000	1.102161e+000	1.067973e+000	1.061359e+000	6.617258e-001	6.783299e-001	7.129833e-001	8.260914e-001	9.795574e-001	9.839136e-001	8.447383e-001	1.099701e+000	7.800707e-001	1.086924e+000	1.088867e+000	1.168990e+000	1.238011e+000	1.243172e+000	1.323553e+000	1.078099e+000	1.138030e+000	1.128930e+000	1.068232e+000	1.075356e+000	5.753817e-001	7.109065e-001	6.164859e-001	1.055312e+000	1.060359e+000	1.072832e+000	1.075730e+000	9.990547e-001	9.855126e-001	1.077722e+000	1.078983e+000	1.073824e+000	1.071630e+000	1.071269e+000	1.020864e+000	1.026934e+000	1.095365e+000	6.997975e-001	6.942534e-001	7.234067e-001	7.171875e-001	1.060331e+000	1.077672e+000	1.075914e+000	9.111135e-001	8.993711e-001	6.744677e-001	7.942466e-001	1.067834e+000	1.068758e+000	1.008311e+000	1.014595e+000	9.471603e-001	9.348550e-001	9.229076e-001	9.542158e-001	9.826740e-001	1.043892e+000	1.028191e+000	1.013199e+000	7.509812e-001	7.433609e-001	7.361646e-001	8.769559e-001	8.661614e-001	8.554180e-001	8.341890e-001	8.238235e-001	7.758902e-001	7.672450e-001	8.136640e-001	9.369379e-001	5.885806e-001	5.930936e-001	1.093682e+000	5.979963e-001	6.036490e-001	6.097208e-001	6.235419e-001	1.087222e+000	8.988225e-001	9.171757e-001	6.953619e-001	7.041945e-001	7.905297e-001	8.021712e-001	8.141573e-001	9.957979e-001	1.081021e+000	1.074455e+000	1.054798e+000	1.048083e+000	1.041609e+000	1.028128e+000	1.021883e+000	1.015964e+000	1.007049e+000	1.004192e+000	9.991347e-001	1.009331e+000	9.630519e-001	6.758520e-001	5.747329e-001	5.770543e-001	5.790832e-001	5.759883e-001	5.751607e-001	5.753180e-001	7.219806e-001	7.309571e-001	7.404445e-001	7.502310e-001	7.603400e-001	9.582904e-001	9.820771e-001	1.038717e+000	1.044461e+000	1.049925e+000	6.863996e-001	6.753668e-001	1.008394e+000	1.036511e+000	8.385493e-001	8.520024e-001	8.664258e-001	6.700262e-001	6.310059e-001	6.383217e-001	6.457437e-001	1.101365e+000	1.097896e+000	1.093063e+000	9.727352e-001	9.703885e-001	9.748197e-001	8.038003e-001	7.942010e-001	1.292197e+000	9.646977e-001	1.085810e+000	1.078473e+000	6.849011e-001	1.299955e+000	1.110924e+000	1.076570e+000	1.076095e+000	1.081202e+000	1.076771e+000	5.962867e-001	1.270894e+000	1.101276e+000	1.207290e+000	1.094464e+000	1.080520e+000	1.247484e+000	5.624889e-001	1.222526e+000	1.126678e+000	1.141565e+000	1.036291e+000	8.941014e-001	1.119573e+000	7.376721e-001	9.774974e-001	7.183097e-001	7.921196e-001	1.075682e+000	5.820816e-001	1.095848e+000	1.095610e+000	1.011503e+000	7.912911e-001	7.051514e-001	1.080496e+000	9.110915e-001	1.065142e+000	1.097113e+000	1.075024e+000	1.098073e+000	1.070347e+000	1.139772e+000	9.944654e-001	1.230618e+000	1.000724e+000	1.006799e+000	1.161730e+000	1.085768e+000	1.184451e+000	1.033113e+000	5.906542e-001	6.789975e-001	1.276318e+000	1.131571e+000	5.807956e-001	1.064044e+000	6.708755e-001	6.877674e-001	6.961450e-001	9.827847e-001	9.884662e-001	1.082684e+000	1.161968e+000	1.192946e+000	1.253046e+000	1.305940e+000	1.099787e+000	1.070517e+000	1.076202e+000	5.807359e-001	1.056626e+000	1.061180e+000	1.068872e+000	1.071585e+000	1.003902e+000	9.904834e-001	1.073926e+000	1.075460e+000	1.076308e+000	1.072640e+000	1.071394e+000	1.024540e+000	1.030195e+000	1.091766e+000	7.125973e-001	7.068904e-001	7.309378e-001	7.241791e-001	1.075316e+000	1.074034e+000	9.166922e-001	9.047606e-001	7.491751e-001	1.071108e+000	1.073053e+000	1.012567e+000	1.019258e+000	9.523052e-001	9.402469e-001	9.285406e-001	8.944415e-001	9.738291e-001	1.064639e+000	1.048310e+000	1.032513e+000	1.017757e+000	7.664683e-001	7.584762e-001	7.511523e-001	7.440741e-001	8.833833e-001	8.726491e-001	8.618863e-001	8.512903e-001	8.409013e-001	7.745956e-001	7.832872e-001	8.306576e-001	6.006676e-001	1.087331e+000	1.091480e+000	6.060573e-001	6.114598e-001	6.179678e-001	6.244781e-001	6.321037e-001	9.296376e-001	9.497155e-001	7.137789e-001	7.230959e-001	8.015497e-001	8.124949e-001	8.249750e-001	8.378780e-001	1.081228e+000	1.075678e+000	1.070023e+000	1.057931e+000	1.051958e+000	1.045888e+000	1.039241e+000	1.027655e+000	1.021914e+000	1.016296e+000	1.007151e+000	1.005231e+000	1.003798e+000	1.011949e+000	1.009216e+000	8.460629e-001	6.262820e-001	5.882785e-001	5.839724e-001	5.730501e-001	5.786453e-001	5.792643e-001	5.788652e-001	7.318822e-001	7.411363e-001	7.499736e-001	7.596909e-001	7.697197e-001	7.803859e-001	9.705689e-001	9.926946e-001	1.041145e+000	1.047059e+000	1.051896e+000	6.969384e-001	6.844429e-001	6.821510e-001	1.017769e+000	1.044414e+000	1.071704e+000	8.507305e-001	8.640421e-001	8.787310e-001	8.943775e-001	6.395073e-001	6.476093e-001	6.551725e-001	6.626707e-001	1.086132e+000	1.093665e+000	1.090597e+000	9.839052e-001	9.771188e-001	9.740689e-001	9.780726e-001	8.206791e-001	8.108544e-001	8.014274e-001	1.158072e+000	1.084060e+000	1.071881e+000	1.120852e+000	1.178479e+000	1.007242e+000	9.702174e-001	1.198563e+000	1.080235e+000	1.238440e+000	1.100898e+000	9.020253e-001	8.147491e-001	1.129345e+000	1.208841e+000	1.276483e+000	1.316512e+000	1.316704e+000	1.308694e+000	1.254731e+000	1.095414e+000	6.898549e-001	1.072674e+000	1.084270e+000	1.073368e+000	1.034768e+000	7.456408e-001	1.079841e+000	1.080507e+000	1.088612e+000	5.923835e-001	6.009357e-001	5.812797e-001	1.006666e+000	6.096178e-001	7.168628e-001	6.795411e-001	1.077825e+000	9.828172e-001	1.111215e+000	1.078107e+000	1.311297e+000	1.135225e+000	1.125438e+000	1.074290e+000	1.084203e+000	1.272608e+000	1.102155e+000	1.218752e+000	1.089425e+000	1.231294e+000	1.122878e+000	1.129355e+000	1.138540e+000	7.901279e-001	8.007599e-001	1.077216e+000	5.885252e-001	1.089783e+000	1.080120e+000	9.951636e-001	1.255649e+000	6.964643e-001	7.072685e-001	7.141399e-001	9.822956e-001	1.155990e+000	1.182811e+000	1.285411e+000	1.120014e+000	1.057336e+000	1.061153e+000	1.064022e+000	1.067807e+000	9.956174e-001	1.009058e+000	1.069633e+000	1.072246e+000	1.072526e+000	1.073966e+000	1.072070e+000	1.071740e+000	1.024758e+000	1.088845e+000	7.252627e-001	7.208091e-001	7.373413e-001	7.326259e-001	1.073355e+000	1.072652e+000	9.221240e-001	9.102814e-001	1.074304e+000	1.076792e+000	1.016606e+000	9.575636e-001	9.452453e-001	9.360593e-001	8.789693e-001	1.068126e+000	1.052258e+000	1.036776e+000	1.022804e+000	7.834223e-001	7.735764e-001	7.675400e-001	7.584263e-001	7.533805e-001	8.897043e-001	8.806928e-001	8.680280e-001	8.593589e-001	8.472575e-001	1.082971e+000	1.085763e+000	1.088047e+000	6.137376e-001	6.212372e-001	6.259798e-001	6.345305e-001	6.399491e-001	9.419888e-001	9.619296e-001	7.253504e-001	7.324702e-001	8.222849e-001	8.359231e-001	8.499260e-001	1.074897e+000	1.070755e+000	1.064708e+000	1.059844e+000	1.053584e+000	1.048400e+000	1.041740e+000	1.033230e+000	1.025886e+000	1.016475e+000	1.018384e+000	9.809854e-001	6.557901e-001	5.758056e-001	5.844846e-001	7.439505e-001	7.509192e-001	7.623574e-001	7.691471e-001	7.810686e-001	7.916821e-001	8.029216e-001	9.824594e-001	1.003279e+000	1.043284e+000	1.048655e+000	1.052282e+000	7.094515e-001	6.961943e-001	1.025874e+000	1.051230e+000	1.076168e+000	8.636737e-001	8.773031e-001	8.915923e-001	9.080289e-001	9.247459e-001	6.493746e-001	6.555091e-001	6.652516e-001	6.736004e-001	1.086861e+000	1.082866e+000	9.890041e-001	9.808591e-001	8.389297e-001	8.271711e-001	8.193095e-001	8.081350e-001	1.116523e+000	1.102628e+000	1.189645e+000	1.286648e+000	1.134496e+000	1.074809e+000	1.078266e+000	1.237170e+000	1.083770e+000	1.098380e+000	1.079703e+000	1.267475e+000	1.101551e+000	1.171678e+000	6.947044e-001	1.121374e+000	1.149942e+000	1.216091e+000	1.153634e+000	1.073345e+000	7.158429e-001	1.078100e+000	8.030641e-001	1.071427e+000	1.071549e+000	9.880200e-001	9.752749e-001	9.028549e-001	1.238956e+000	7.485725e-001	1.001550e+000	9.887000e-001	8.412544e-001	1.079964e+000	1.074543e+000	1.256295e+000	1.126229e+000	1.072442e+000	1.115603e+000	1.078642e+000	1.313771e+000	1.254148e+000	1.083010e+000	1.012091e+000	6.166284e-001	6.264665e-001	1.079438e+000	1.123240e+000	1.086826e+000	1.291517e+000	1.129280e+000	1.086353e+000	1.224114e+000	1.207265e+000	5.991119e-001	1.118622e+000	1.084247e+000	1.082837e+000	6.066497e-001	7.116806e-001	7.298870e-001	1.001764e+000	1.173263e+000	1.195740e+000	1.136642e+000	1.058517e+000	1.064039e+000	1.013918e+000	1.068419e+000	1.070345e+000	1.071941e+000	1.086734e+000	7.365042e-001	1.071828e+000	1.071758e+000	9.224559e-001	1.076886e+000	1.020345e+000	1.028796e+000	9.578666e-001	9.412747e-001	8.079257e-001	1.071050e+000	1.054791e+000	1.040049e+000	1.029459e+000	7.863827e-001	7.713627e-001	7.609739e-001	8.813776e-001	8.603692e-001	1.081513e+000	1.082911e+000	6.392771e-001	6.537666e-001	9.725496e-001	7.487355e-001	8.613420e-001	1.020997e+000	1.066354e+000	1.056367e+000	1.045872e+000	1.036248e+000	1.028667e+000	1.008836e+000	1.010105e+000	1.024939e+000	8.543276e-001	6.072264e-001	5.743614e-001	5.886281e-001	5.923084e-001	7.678093e-001	7.865177e-001	8.043532e-001	8.127416e-001	8.266847e-001	9.935818e-001	1.013337e+000	1.037977e+000	1.046281e+000	1.052687e+000	7.255858e-001	7.109740e-001	1.033440e+000	1.056343e+000	1.079780e+000	1.102510e+000	8.768884e-001	8.909287e-001	9.049809e-001	9.207663e-001	9.400880e-001	9.529725e-001	6.687401e-001	6.833002e-001	1.082881e+000	1.079476e+000	9.528576e-001	9.801690e-001	9.879822e-001	8.402519e-001	8.211196e-001	1.081489e+000	1.118575e+000	1.113702e+000	1.091090e+000	1.051366e+000	1.078564e+000	1.118604e+000	1.095327e+000	1.196314e+000	1.149192e+000	1.103344e+000	1.090418e+000	1.164496e+000	1.237318e+000	1.250022e+000	1.078868e+000	1.016103e+000	7.037880e-001	1.084699e+000	1.066380e+000	1.117055e+000	9.743811e-001	1.144314e+000	1.180956e+000	7.669563e-001	1.070109e+000	9.826532e-001	7.773552e-001	1.074713e+000	1.076602e+000	1.101649e+000	1.088149e+000	1.116074e+000	1.077635e+000	1.077689e+000	1.079133e+000	7.364541e-001	6.056922e-001	9.957553e-001	1.018299e+000	1.100167e+000	1.105344e+000	1.295135e+000	1.073225e+000	1.079096e+000	1.129686e+000	1.078890e+000	1.220359e+000	1.164830e+000	7.249283e-001	1.237208e+000	1.008546e+000	9.934015e-001	1.078001e+000	1.267607e+000	1.072140e+000	1.081525e+000	1.007499e+000	1.271886e+000	1.129293e+000	1.032682e+000	1.224215e+000	1.210776e+000	6.