# vtk DataFile Version 3.0
vtk output
ASCII
DATASET UNSTRUCTURED_GRID
POINTS 5233 float
9.997500e-001	-3.632782e-005	0.0	9.990000e-001	-1.451816e-004	0.0	9.977600e-001	-3.243251e-004	0.0	9.960200e-001	-5.727971e-004	0.0	9.937800e-001	-8.854937e-004	0.0	9.910500e-001	-1.253013e-003	0.0	9.878400e-001	-1.664893e-003	0.0	9.841300e-001	-2.117243e-003	0.0	9.799500e-001	-2.608241e-003	0.0	9.752800e-001	-3.154683e-003	0.0	9.701500e-001	-3.779721e-003	0.0	9.645400e-001	-4.518191e-003	0.0	9.584700e-001	-5.394091e-003	0.0	9.519400e-001	-6.416122e-003	0.0	9.449600e-001	-7.566982e-003	0.0	9.375400e-001	-8.806471e-003	0.0	9.296900e-001	-1.008122e-002	0.0	9.214000e-001	-1.134109e-002	0.0	9.127000e-001	-1.254216e-002	0.0	9.035800e-001	-1.366661e-002	0.0	8.940600e-001	-1.471477e-002	0.0	8.841500e-001	-1.570752e-002	0.0	8.738500e-001	-1.667926e-002	0.0	8.631800e-001	-1.766742e-002	0.0	8.521600e-001	-1.870727e-002	0.0	8.407700e-001	-1.983039e-002	0.0	8.290500e-001	-2.105198e-002	0.0	8.170100e-001	-2.237855e-002	0.0	8.046400e-001	-2.380852e-002	0.0	7.919700e-001	-2.532754e-002	0.0	7.790100e-001	-2.691794e-002	0.0	7.657800e-001	-2.855799e-002	0.0	7.522800e-001	-3.022799e-002	0.0	7.385200e-001	-3.190830e-002	0.0	7.245300e-001	-3.357924e-002	0.0	7.103200e-001	-3.522658e-002	0.0	6.958900e-001	-3.684020e-002	0.0	6.812700e-001	-3.840942e-002	0.0	6.664700e-001	-3.992830e-002	0.0	6.515000e-001	-4.139286e-002	0.0	6.363800e-001	-4.279975e-002	0.0	6.211300e-001	-4.414698e-002	0.0	6.057600e-001	-4.543442e-002	0.0	5.902800e-001	-4.666257e-002	0.0	5.747100e-001	-4.783171e-002	0.0	5.590600e-001	-4.894333e-002	0.0	5.433600e-001	-4.999784e-002	0.0	5.276100e-001	-5.099798e-002	0.0	5.118400e-001	-5.194467e-002	0.0	4.960500e-001	-5.284069e-002	0.0	4.802700e-001	-5.368706e-002	0.0	4.645100e-001	-5.448580e-002	0.0	4.487800e-001	-5.523863e-002	0.0	4.331100e-001	-5.594603e-002	0.0	4.175000e-001	-5.660946e-002	0.0	4.019700e-001	-5.722900e-002	0.0	3.865400e-001	-5.780425e-002	0.0	3.712300e-001	-5.833429e-002	0.0	3.560400e-001	-5.881831e-002	0.0	3.409900e-001	-5.925415e-002	0.0	3.261100e-001	-5.963888e-002	0.0	3.114000e-001	-5.996980e-002	0.0	2.968700e-001	-6.024329e-002	0.0	2.825500e-001	-6.045490e-002	0.0	2.684500e-001	-6.060012e-002	0.0	2.545700e-001	-6.067402e-002	0.0	2.409400e-001	-6.067115e-002	0.0	2.275700e-001	-6.058599e-002	0.0	2.144700e-001	-6.041279e-002	0.0	2.016600e-001	-6.014592e-002	0.0	1.891400e-001	-5.977933e-002	0.0	1.769300e-001	-5.930755e-002	0.0	1.650400e-001	-5.872509e-002	0.0	1.534900e-001	-5.802732e-002	0.0	1.422900e-001	-5.720969e-002	0.0	1.314400e-001	-5.626717e-002	0.0	1.209500e-001	-5.519573e-002	0.0	1.108500e-001	-5.399443e-002	0.0	1.011300e-001	-5.265859e-002	0.0	9.181000e-002	-5.118777e-002	0.0	8.290000e-002	-4.958128e-002	0.0	7.440000e-002	-4.783720e-002	0.0	6.633000e-002	-4.595846e-002	0.0	5.869000e-002	-4.394468e-002	0.0	5.149000e-002	-4.179857e-002	0.0	4.474000e-002	-3.952416e-002	0.0	3.844000e-002	-3.712300e-002	0.0	3.260000e-002	-3.460101e-002	0.0	2.723000e-002	-3.196604e-002	0.0	2.232000e-002	-2.921649e-002	0.0	1.790000e-002	-2.637454e-002	0.0	1.395000e-002	-2.343373e-002	0.0	1.049000e-002	-2.041553e-002	0.0	7.520000e-003	-1.733049e-002	0.0	5.040000e-003	-1.419014e-002	0.0	3.050000e-003	-1.100666e-002	0.0	1.560000e-003	-7.816083e-003	0.0	5.600000e-004	-4.618721e-003	0.0	6.000000e-005	-1.468080e-003	0.0	0.000000e+000	0.000000e+000	0.0	6.000000e-005	1.445318e-003	0.0	5.600000e-004	4.507024e-003	0.0	1.560000e-003	7.574437e-003	0.0	3.050000e-003	1.059898e-002	0.0	5.040000e-003	1.358237e-002	0.0	7.520000e-003	1.649340e-002	0.0	1.049000e-002	1.932423e-002	0.0	1.395000e-002	2.206813e-002	0.0	1.790000e-002	2.471962e-002	0.0	2.232000e-002	2.726364e-002	0.0	2.723000e-002	2.971011e-002	0.0	3.260000e-002	3.204315e-002	0.0	3.844000e-002	3.426768e-002	0.0	4.474000e-002	3.637973e-002	0.0	5.149000e-002	3.837647e-002	0.0	5.869000e-002	4.025827e-002	0.0	6.633000e-002	4.202268e-002	0.0	7.440000e-002	4.366777e-002	0.0	8.290000e-002	4.519366e-002	0.0	9.181000e-002	4.659696e-002	0.0	1.011300e-001	4.787805e-002	0.0	1.108500e-001	4.903572e-002	0.0	1.209500e-001	5.006824e-002	0.0	1.314400e-001	5.097728e-002	0.0	1.422900e-001	5.176120e-002	0.0	1.534900e-001	5.242101e-002	0.0	1.650400e-001	5.295869e-002	0.0	1.769300e-001	5.337605e-002	0.0	1.891400e-001	5.367538e-002	0.0	2.016600e-001	5.386018e-002	0.0	2.144700e-001	5.393462e-002	0.0	2.275700e-001	5.390373e-002	0.0	2.409400e-001	5.377313e-002	0.0	2.545700e-001	5.354912e-002	0.0	2.684500e-001	5.323849e-002	0.0	2.825500e-001	5.284904e-002	0.0	2.968700e-001	5.238820e-002	0.0	3.114000e-001	5.186367e-002	0.0	3.261100e-001	5.128399e-002	0.0	3.409900e-001	5.065679e-002	0.0	3.560400e-001	4.998886e-002	0.0	3.712300e-001	4.928771e-002	0.0	3.865400e-001	4.855972e-002	0.0	4.019700e-001	4.780934e-002	0.0	4.175000e-001	4.704088e-002	0.0	4.331100e-001	4.625743e-002	0.0	4.487800e-001	4.546076e-002	0.0	4.645100e-001	4.465019e-002	0.0	4.802700e-001	4.382522e-002	0.0	4.960500e-001	4.298297e-002	0.0	5.118400e-001	4.211939e-002	0.0	5.276100e-001	4.123054e-002	0.0	5.433600e-001	4.031020e-002	0.0	5.590600e-001	3.935363e-002	0.0	5.747100e-001	3.835459e-002	0.0	5.902800e-001	3.730958e-002	0.0	6.057600e-001	3.621535e-002	0.0	6.211300e-001	3.507152e-002	0.0	6.363800e-001	3.387980e-002	0.0	6.515000e-001	3.264522e-002	0.0	6.664700e-001	3.137740e-002	0.0	6.812700e-001	3.008999e-002	0.0	6.958900e-001	2.879968e-002	0.0	7.103200e-001	2.752657e-002	0.0	7.245300e-001	2.629507e-002	0.0	7.385200e-001	2.512821e-002	0.0	7.522800e-001	2.404968e-002	0.0	7.657800e-001	2.308225e-002	0.0	7.790100e-001	2.224235e-002	0.0	7.919700e-001	2.153901e-002	0.0	8.046400e-001	2.097327e-002	0.0	8.170100e-001	2.053432e-002	0.0	8.290500e-001	2.019934e-002	0.0	8.407700e-001	1.993135e-002	0.0	8.521600e-001	1.968216e-002	0.0	8.631800e-001	1.939494e-002	0.0	8.738500e-001	1.900692e-002	0.0	8.841500e-001	1.845819e-002	0.0	8.940600e-001	1.769968e-002	0.0	9.035800e-001	1.670005e-002	0.0	9.127000e-001	1.545536e-002	0.0	9.214000e-001	1.399556e-002	0.0	9.296900e-001	1.237766e-002	0.0	9.375400e-001	1.069150e-002	0.0	9.449600e-001	9.030957e-003	0.0	9.519400e-001	7.488009e-003	0.0	9.584700e-001	6.130825e-003	0.0	9.645400e-001	4.991313e-003	0.0	9.701500e-001	4.061925e-003	0.0	9.752800e-001	3.310343e-003	0.0	9.799500e-001	2.686856e-003	0.0	9.841300e-001	2.153418e-003	0.0	9.878400e-001	1.679803e-003	0.0	9.910500e-001	1.258441e-003	0.0	9.937800e-001	8.871663e-004	0.0	9.960200e-001	5.732044e-004	0.0	9.977600e-001	3.243938e-004	0.0	9.990000e-001	1.451875e-004	0.0	9.997500e-001	3.632791e-005	0.0	1.000000e+000	0.000000e+000	0.0	1.984229e+001	2.506660e+000	0.0	1.937166e+001	4.973800e+000	0.0	1.859553e+001	7.362490e+000	0.0	1.752613e+001	9.635070e+000	0.0	1.618034e+001	1.175571e+001	0.0	1.457937e+001	1.369094e+001	0.0	1.274848e+001	1.541027e+001	0.0	1.071654e+001	1.688656e+001	0.0	8.515590e+000	1.809654e+001	0.0	6.180340e+000	1.902113e+001	0.0	3.747630e+000	1.964575e+001	0.0	1.255810e+000	1.996053e+001	0.0	-1.255810e+000	1.996053e+001	0.0	-3.747630e+000	1.964574e+001	0.0	-6.180340e+000	1.902113e+001	0.0	-8.515590e+000	1.809654e+001	0.0	-1.071654e+001	1.688656e+001	0.0	-1.274848e+001	1.541026e+001	0.0	-1.457937e+001	1.369094e+001	0.0	-1.618034e+001	1.175570e+001	0.0	-1.752613e+001	9.635070e+000	0.0	-1.859553e+001	7.362490e+000	0.0	-1.937166e+001	4.973800e+000	0.0	-1.984229e+001	2.506660e+000	0.0	-2.000000e+001	0.000000e+000	0.0	-1.984229e+001	-2.506670e+000	0.0	-1.937166e+001	-4.973800e+000	0.0	-1.859553e+001	-7.362490e+000	0.0	-1.752613e+001	-9.635080e+000	0.0	-1.618034e+001	-1.175571e+001	0.0	-1.457937e+001	-1.369094e+001	0.0	-1.274848e+001	-1.541027e+001	0.0	-1.071653e+001	-1.688656e+001	0.0	-8.515580e+000	-1.809654e+001	0.0	-6.180340e+000	-1.902113e+001	0.0	-3.747620e+000	-1.964575e+001	0.0	-1.255810e+000	-1.996053e+001	0.0	1.255810e+000	-1.996053e+001	0.0	3.747630e+000	-1.964574e+001	0.0	6.180340e+000	-1.902113e+001	0.0	8.515590e+000	-1.809654e+001	0.0	1.071654e+001	-1.688656e+001	0.0	1.274848e+001	-1.541026e+001	0.0	1.457937e+001	-1.369094e+001	0.0	1.618034e+001	-1.175570e+001	0.0	1.752614e+001	-9.635070e+000	0.0	1.859553e+001	-7.362490e+000	0.0	1.937166e+001	-4.973790e+000	0.0	1.984229e+001	-2.506660e+000	0.0	2.000000e+001	0.000000e+000	0.0	6.053930e-002	-5.182633e-002	0.0	6.603029e-001	-5.428243e-002	0.0	4.260667e-001	6.112012e-002	0.0	6.896433e-001	4.296409e-002	0.0	3.794111e-001	-7.222778e-002	0.0	9.994606e-001	-7.184486e-004	0.0	9.985445e-001	-1.308756e-003	0.0	7.737475e-001	-3.995237e-002	0.0	6.899445e-001	-5.094191e-002	0.0	-1.691373e-003	6.991858e-003	0.0	7.467747e-001	-4.368716e-002	0.0	5.835196e-001	5.210468e-002	0.0	9.927646e-001	-3.540558e-003	0.0	9.898542e-001	-4.379170e-003	0.0	5.990572e-001	5.094362e-002	0.0	7.188093e-001	-4.738227e-002	0.0	-1.749158e-003	8.070115e-004	0.0	9.864503e-001	-5.270912e-003	0.0	9.825632e-001	-6.204991e-003	0.0	-1.741862e-003	-7.190169e-003	0.0	6.452319e-001	-5.585675e-002	0.0	8.242861e-001	-3.293492e-002	0.0	7.996092e-001	-3.633455e-002	0.0	3.490571e-001	6.428238e-002	0.0	8.476595e-001	-2.983698e-002	0.0	2.478144e-001	6.625811e-002	0.0	8.696746e-001	-2.697480e-002	0.0	9.730549e-003	2.380664e-002	0.0	8.902242e-001	-2.418668e-002	0.0	7.688979e-002	-5.640012e-002	0.0	9.092228e-001	-2.127560e-002	0.0	-2.162782e-003	-3.518171e-003	0.0	9.421777e-001	-1.496132e-002	0.0	9.265699e-001	-1.815541e-002	0.0	1.755712e-002	-3.172431e-002	0.0	4.259997e-001	-7.067260e-002	0.0	8.588457e-001	-2.838210e-002	0.0	9.560101e-001	-1.197399e-002	0.0	9.781889e-001	-7.205384e-003	0.0	9.680303e-001	-9.388849e-003	0.0	1.584220e-001	-6.900206e-002	0.0	8.999256e-001	-2.275659e-002	0.0	7.603952e-001	-4.181545e-002	0.0	9.971184e-001	-2.038193e-003	0.0	5.992069e-001	-6.016047e-002	0.0	4.416922e-001	-7.003323e-002	0.0	5.365123e-001	-6.490193e-002	0.0	4.732444e-001	-6.857367e-002	0.0	5.048872e-001	-6.686694e-002	0.0	4.890538e-001	-6.775115e-002	0.0	1.250048e-001	-6.532276e-002	0.0	2.749213e-002	-3.807640e-002	0.0	3.948471e-001	-7.177090e-002	0.0	4.594937e-002	-4.671
[...]
POINT_DATA 5233

SCALARS Density float 1
LOOKUP_TABLE default
1.183320e+000	1.159225e+000	1.143083e+000	1.129480e+000	1.117900e+000	1.108671e+000	1.102019e+000	1.098361e+000	1.097211e+000	1.097320e+000	1.096824e+000	1.093903e+000	1.087291e+000	1.076650e+000	1.062626e+000	1.046647e+000	1.030822e+000	1.017714e+000	1.009255e+000	1.006007e+000	1.007229e+000	1.011324e+000	1.016530e+000	1.021329e+000	1.024644e+000	1.025909e+000	1.024951e+000	1.021853e+000	1.016893e+000	1.010433e+000	1.002869e+000	9.946087e-001	9.859751e-001	9.773021e-001	9.688499e-001	9.608160e-001	9.533565e-001	9.465087e-001	9.403397e-001	9.348010e-001	9.298595e-001	9.254822e-001	9.216535e-001	9.183221e-001	9.154770e-001	9.130176e-001	9.108738e-001	9.090088e-001	9.073406e-001	9.058208e-001	9.043663e-001	9.029013e-001	9.015178e-001	9.004069e-001	8.996374e-001	8.988065e-001	8.970651e-001	8.948131e-001	8.953446e-001	9.028989e-001	9.138507e-001	9.076995e-001	8.574138e-001	7.792647e-001	7.365827e-001	7.322246e-001	7.370127e-001	7.392585e-001	7.391952e-001	7.395467e-001	7.415262e-001	7.450567e-001	7.497368e-001	7.550655e-001	7.609925e-001	7.678914e-001	7.762571e-001	7.862911e-001	7.977306e-001	8.105106e-001	8.247546e-001	8.405513e-001	8.581061e-001	8.775181e-001	8.989903e-001	9.227921e-001	9.490845e-001	9.781356e-001	1.010219e+000	1.045278e+000	1.083407e+000	1.124457e+000	1.167500e+000	1.211570e+000	1.254955e+000	1.294837e+000	1.325579e+000	1.347700e+000	1.349687e+000	1.338864e+000	1.332729e+000	1.305764e+000	1.248182e+000	1.191444e+000	1.130162e+000	1.070266e+000	1.014863e+000	9.652498e-001	9.214761e-001	8.835447e-001	8.508639e-001	8.224393e-001	7.977119e-001	7.759720e-001	7.568220e-001	7.400872e-001	7.253338e-001	7.120382e-001	6.998418e-001	6.884220e-001	6.776451e-001	6.677034e-001	6.589234e-001	6.512244e-001	6.441988e-001	6.373829e-001	6.309939e-001	6.252310e-001	6.200761e-001	6.152300e-001	6.106870e-001	6.066293e-001	6.033934e-001	6.010875e-001	5.997329e-001	5.992024e-001	5.993693e-001	6.001308e-001	6.013369e-001	6.029055e-001	6.047574e-001	6.068948e-001	6.093738e-001	6.120131e-001	6.146190e-001	6.166527e-001	6.185550e-001	6.207101e-001	6.244462e-001	6.251256e-001	6.204340e-001	6.471684e-001	7.894575e-001	9.637378e-001	9.949441e-001	9.840160e-001	9.784242e-001	9.803097e-001	9.823183e-001	9.844700e-001	9.878130e-001	9.922378e-001	9.971813e-001	1.002428e+000	1.007592e+000	1.012369e+000	1.016316e+000	1.019080e+000	1.020223e+000	1.019381e+000	1.016154e+000	1.010253e+000	1.001385e+000	9.894902e-001	9.747513e-001	9.579936e-001	9.410437e-001	9.265721e-001	9.182196e-001	9.197867e-001	9.333272e-001	9.572768e-001	9.867827e-001	1.016373e+000	1.043064e+000	1.065191e+000	1.081556e+000	1.091990e+000	1.097253e+000	1.098871e+000	1.098811e+000	1.099149e+000	1.101369e+000	1.106236e+000	1.113578e+000	1.123402e+000	1.135241e+000	1.150013e+000	1.167779e+000	1.160280e+000	9.988736e-001	9.996841e-001	9.997721e-001	9.996483e-001	9.995664e-001	9.994626e-001	9.993388e-001	9.991842e-001	9.990158e-001	9.989021e-001	9.988453e-001	9.989208e-001	9.990962e-001	9.994182e-001	9.996866e-001	9.999039e-001	1.000027e+000	1.000105e+000	1.000154e+000	1.000177e+000	1.000191e+000	1.000197e+000	1.000202e+000	1.000210e+000	1.000216e+000	1.000226e+000	1.000243e+000	1.000266e+000	1.000297e+000	1.000344e+000	1.000397e+000	1.000483e+000	1.000566e+000	1.000706e+000	1.000835e+000	1.000992e+000	1.001155e+000	1.001217e+000	1.001232e+000	1.001137e+000	1.001031e+000	1.000878e+000	1.000734e+000	1.000593e+000	1.000468e+000	1.000315e+000	1.000190e+000	1.000213e+000	9.994222e-001	9.983420e-001	8.898099e-001	9.407142e-001	6.157881e-001	9.960069e-001	8.977017e-001	1.163230e+000	1.150175e+000	9.987725e-001	9.528031e-001	1.288433e+000	9.829686e-001	9.924171e-001	1.114584e+000	1.106891e+000	9.813734e-001	9.671339e-001	1.336476e+000	1.101347e+000	1.097904e+000	1.334869e+000	9.355151e-001	1.021307e+000	1.012383e+000	6.051362e-001	1.023552e+000	6.080771e-001	1.019275e+000	1.035036e+000	1.012854e+000	8.519699e-001	1.013603e+000	1.347569e+000	1.055441e+000	1.029302e+000	1.091926e+000	9.022177e-001	1.022078e+000	1.078705e+000	1.095868e+000	1.091383e+000	7.625945e-001	1.011668e+000	9.910047e-001	1.135943e+000	9.230783e-001	9.031353e-001	9.127129e-001	9.060134e-001	9.091625e-001	9.075881e-001	7.852479e-001	1.021872e+000	9.002211e-001	9.355266e-001	9.015346e-001	9.222639e-001	9.002984e-001	9.905610e-001	8.152371e-001	1.041889e+000	7.691745e-001	7.479241e-001	8.356689e-001	8.075181e-001	9.172011e-001	7.566366e-001	9.267207e-001	1.015836e+000	1.055693e+000	1.124365e+000	1.209942e+000	9.451626e-001	1.019500e+000	1.068139e+000	1.094137e+000	1.243746e+000	1.023325e+000	7.402124e-001	9.148086e-001	9.749306e-001	1.006007e+000	7.955648e-001	7.453040e-001	9.199314e-001	9.464631e-001	9.116137e-001	1.248848e+000	1.130183e+000	8.960300e-001	7.516181e-001	1.196710e+000	7.445765e-001	8.209046e-001	8.960984e-001	7.357913e-001	9.044710e-001	9.597069e-001	1.324109e+000	1.314687e+000	6.748947e-001	1.342185e+000	8.735626e-001	7.742571e-001	8.177585e-001	6.780906e-001	6.134265e-001	1.128959e+000	6.258994e-001	6.233108e-001	1.092988e+000	1.080781e+000	9.350423e-001	6.257533e-001	6.179310e-001	6.086805e-001	9.824393e-001	9.413234e-001	7.259102e-001	1.095473e+000	1.068841e+000	1.031696e+000	7.001874e-001	7.563042e-001	6.028240e-001	6.054550e-001	6.384436e-001	6.030157e-001	6.196002e-001	6.109564e-001	6.527098e-001	6.688030e-001	9.842354e-001	6.264178e-001	6.159965e-001	9.882888e-001	1.005603e+000	1.012973e+000	1.005026e+000	1.014966e+000	1.017173e+000	9.836926e-001	1.004108e+000	9.333959e-001	9.565417e-001	1.052348e+000	9.587242e-001	1.088532e+000	9.704923e-001	9.438214e-001	1.010739e+000	9.950608e-001	1.015718e+000	1.017031e+000	1.000510e+000	1.009309e+000	9.858704e-001	9.918557e-001	9.188598e-001	9.820724e-001	6.210203e-001	6.116571e-001	6.453332e-001	6.322284e-001	7.946152e-001	6.605530e-001	9.878477e-001	8.439739e-001	7.458597e-001	1.139355e+000	1.086455e+000	1.017583e+000	9.130340e-001	9.108431e-001	1.193557e+000	9.070849e-001	1.085866e+000	7.126351e-001	7.403292e-001	6.037144e-001	6.886052e-001	1.097428e+000	1.100125e+000	6.026297e-001	1.104442e+000	1.110666e+000	6.039038e-001	6.067162e-001	1.007889e+000	1.179627e+000	1.141556e+000	1.153987e+000	9.308569e-001	9.617960e-001	1.118891e+000	6.235258e-001	1.284750e+000	1.169921e+000	8.699631e-001	7.765441e-001	7.487630e-001	7.574037e-001	1.268802e+000	1.305591e+000	7.846999e-001	9.592122e-001	1.022489e+000	1.200691e+000	9.973797e-001	9.528391e-001	1.002067e+000	1.104686e+000	9.178001e-001	1.021678e+000	1.020306e+000	8.476811e-001	1.317281e+000	7.538721e-001	1.129132e+000	1.079123e+000	7.788635e-001	9.660596e-001	9.415701e-001	9.063548e-001	8.642227e-001	9.018480e-001	1.016713e+000	1.008180e+000	1.089820e+000	9.621372e-001	9.920401e-001	9.900722e-001	7.019876e-001	9.953677e-001	6.552277e-001	9.589136e-001	1.101716e+000	6.072511e-001	6.154321e-001	1.057082e+000	9.512824e-001	1.106925e+000	1.069741e+000	1.094065e+000	6.186627e-001	6.069961e-001	6.232661e-001	7.141296e-001	9.469507e-001	7.562003e-001	1.044500e+000	6.718372e-001	8.142916e-001	1.085846e+000	1.113638e+000	9.486073e-001	7.714066e-001	1.192222e+000	1.131485e+000	1.121770e+000	1.136618e+000	1.228657e+000	1.235466e+000	1.340268e+000	1.335265e+000	1.094253e+000	1.199568e+000	9.020441e-001	1.139355e+000	1.118880e+000	6.148570e-001	9.168545e-001	1.099825e+000	1.018859e+000	9.839533e-001	1.110949e+000	1.334906e+000	9.050748e-001	6.128745e-001	1.021676e+000	6.095670e-001	1.020584e+000	1.017255e+000	8.823023e-001	1.018217e+000	1.029731e+000	1.061133e+000	1.029491e+000	1.070991e+000	1.085314e+000	1.096191e+000	7.960390e-001	9.880448e-001	9.952568e-001	1.128365e+000	9.079139e-001	9.095563e-001	9.112071e-001	1.061108e+000	9.033236e-001	9.041907e-001	9.067054e-001	9.724560e-001	1.039347e+000	1.050238e+000	7.870237e-001	8.325225e-001	9.191971e-001	9.283546e-001	1.089768e+000	1.093116e+000	9.732034e-001	9.806296e-001	8.188349e-001	8.066418e-001	9.218597e-001	9.248990e-001	9.471334e-001	9.236697e-001	1.164717e+000	9.000938e-001	8.998647e-001	7.650522e-001	7.599551e-001	7.523668e-001	7.495688e-001	8.637784e-001	9.140607e-001	7.434413e-001	1.328239e+000	1.268214e+000	8.377452e-001	1.097552e+000	6.363611e-001	6.273364e-001	6.253205e-001	6.222710e-001	1.090492e+000	1.079195e+000	9.823002e-001	6.189746e-001	6.170050e-001	6.110034e-001	9.647075e-001	1.041219e+000	7.743701e-001	7.932397e-001	6.148928e-001	6.117982e-001	6.631463e-001	6.813896e-001	6.912164e-001	1.013211e+000	1.009899e+000	1.006658e+000	1.014420e+000	9.986960e-001	9.529105e-001	9.691143e-001	9.799737e-001	1.005418e+000	1.010280e+000	1.014071e+000	1.012505e+000	1.002920e+000	9.991488e-001	9.891566e-001	9.875360e-001	9.931934e-001	8.098778e-001	9.864972e-001	9.843698e-001	6.284772e-001	6.345321e-001	6.410364e-001	6.480399e-001	1.001859e+000	8.640891e-001	8.936121e-001	1.013424e+000	1.017532e+000	9.129062e-001	9.147561e-001	1.184098e+000	9.262063e-001	7.274766e-001	7.418799e-001	6.071989e-001	6.080265e-001	6.093533e-001	6.080420e-001	1.022721e+000	1.002536e+000	9.322883e-001	9.366878e-001	9.998460e-001	1.296941e+000	7.461395e-001	1.316878e+000	9.052950e-001	8.254492e-001	1.004845e+000	9.191837e-001	1.030835e+000	1.102931e+000	1.097962e+000	1.070835e+000	1.176458e+000	1.109121e+000	1.142404e+000	1.157845e+000	1.130650e+000	1.180825e+000	1.097137e+000	1.311843e+000	8.604686e-001	1.038357e+000	1.107533e+000	1.004091e+000	1.151983e+000	1.223571e+000	9.657230e-001	1.278697e+000	9.722699e-001	1.128402e+000	1.020554e+000	1.192527e+000	9.146095e-001	1.020947e+000	9.594149e-001	1.114593e+000	1.160706e+000	1.089212e+000	6.229289e-001	1.048595e+000	9.925053e-001	1.115649e+000	6.202054e-001	6.189209e-001	6.112310e-001	6.750651e-001	7.931559e-001	1.150806e+000	1.296640e+000	1.248601e+000	1.014618e+000	1.285670e+000	1.079727e+000	8.771694e-001	1.331274e+000	7.886018e-001	9.098870e-001	1.066654e+000	1.093800e+000	9.944180e-001	1.011103e+000	9.950107e-001	1.093555e+000	1.060905e+000	9.619230e-001	9.647444e-001	6.121512e-001	6.159109e-001	6.315669e-001	7.296053e-001	9.480076e-001	9.535261e-001	7.648416e-001	1.053585e+000	6.840118e-001	1.084473e+000	1.123047e+000	1.135160e+000	1.215609e+000	1.252418e+000	1.325081e+000	1.037015e+000	1.169699e+000	1.159812e+000	1.084997e+000	1.101920e+000	9.917442e-001	9.083738e-001	6.148568e-001	1.019647e+000	1.020736e+000	1.020129e+000	1.020284e+000	9.148033e-001	8.952693e-001	1.021785e+000	1.025221e+000	1.065309e+000	1.073176e+000	1.097247e+000	9.926207e-001	9.989934e-001	1.122313e+000	9.115925e-001	9.133871e-001	9.062997e-001	9.071750e-001	1.009341e+000	1.047180e+000	1.056427e+000	8.077431e-001	7.978895e-001	9.215370e-001	9.241172e-001	1.089321e+000	1.093184e+000	9.790805e-001	9.859221e-001	8.451454e-001	8.308756e-001	8.182826e-001	9.270913e-001	9.304065e-001	9.835905e-001	9.590745e-001	9.360203e-001	9.059412e-001	9.031101e-001	9.039382e-001	7.807403e-001	7.743344e-001	7.690435e-001	7.619445e-001	7.591285e-001	8.945346e-001	9.195340e-001	7.547949e-001	8.579706e-001	6.270983e-001	6.254363e-001	1.078534e+000	6.216233e-001	6.187245e-001	6.166257e-001	6.134642e-001	9.849875e-001	8.127921e-001	8.344246e-001	6.224205e-001	6.268087e-001	6.942137e-001	7.058011e-001	7.174627e-001	1.007185e+000	9.720316e-001	9.641067e-001	9.709474e-001	9.787791e-001	9.868858e-001	1.000875e+000	1.005742e+000	1.009159e+000	1.011674e+000	1.011092e+000	1.009513e+000	1.004398e+000	1.001223e+000	9.981587e-001	9.904316e-001	9.403500e-001	6.967241e-001	9.899249e-001	9.890998e-001	9.873263e-001	6.371800e-001	6.432936e-001	6.505772e-001	6.583398e-001	6.667311e-001	8.838009e-001	9.126579e-001	1.009961e+000	1.014245e+000	1.017481e+000	9.151656e-001	9.171048e-001	9.444032e-001	9.781676e-001	7.434144e-001	7.587920e-001	7.753020e-001	6.137406e-001	6.123836e-001	6.114974e-001	6.110191e-001	1.034077e+000	1.017881e+000	1.000964e+000	9.341851e-001	9.383401e-001	9.429871e-001	7.505891e-001	7.662113e-001	1.297609e+000	8.737269e-001	1.116347e+000	1.088896e+000	9.235316e-001	1.293221e+000	1.139003e+000	1.038492e+000	1.045776e+000	1.043089e+000	1.103939e+000	6.227163e-001	1.277496e+000	1.059947e+000	1.210312e+000	1.063438e+000	1.109889e+000	1.231043e+000	9.923721e-001	1.201627e+000	1.160592e+000	1.173027e+000	1.007192e+000	8.000943e-001	1.098586e+000	9.083917e-001	8.904339e-001	9.120565e-001	8.630186e-001	1.093692e+000	9.928649e-001	1.053594e+000	1.042133e+000	1.008463e+000	6.989635e-001	6.325717e-001	1.103968e+000	8.318646e-001	1.021400e+000	1.130556e+000	1.098626e+000	1.123795e+000	1.085215e+000	1.126232e+000	9.655219e-001	1.236369e+000	9.719709e-001	9.779349e-001	1.155021e+000	1.109919e+000	1.183330e+000	9.973754e-001	6.212853e-001	6.212334e-001	1.264661e+000	1.095589e+000	9.944226e-001	9.738934e-001	6.190754e-001	6.245689e-001	6.279628e-001	9.541438e-001	9.601409e-001	1.083871e+000	1.131210e+000	1.167369e+000	1.260075e+000	1.308254e+000	1.070411e+000	1.080324e+000	1.098750e+000	1.005047e+000	1.019433e+000	1.020652e+000	1.021997e+000	1.022970e+000	9.273765e-001	9.082799e-001	1.024735e+000	1.027850e+000	1.032468e+000	1.068238e+000	1.074732e+000	9.963842e-001	1.001867e+000	1.116603e+000	9.137749e-001	9.156680e-001	9.093370e-001	9.106137e-001	1.053422e+000	1.060982e+000	8.208843e-001	8.095101e-001	9.266929e-001	1.089641e+000	1.094057e+000	9.842957e-001	9.911159e-001	8.580305e-001	8.438989e-001	8.320028e-001	9.290139e-001	9.328240e-001	1.018249e+000	9.937656e-001	9.698274e-001	9.476147e-001	9.117630e-001	9.072051e-001	9.064574e-001	9.072338e-001	7.925426e-001	7.857659e-001	7.800324e-001	7.750880e-001	7.713419e-001	9.179822e-001	9.084768e-001	7.673817e-001	6.268341e-001	1.078282e+000	1.071571e+000	6.250038e-001	6.221123e-001	6.193356e-001	6.175911e-001	6.166402e-001	8.540408e-001	8.780874e-001	6.370485e-001	6.428285e-001	7.092964e-001	7.211535e-001	7.341577e-001	7.473607e-001	9.902464e-001	9.808978e-001	9.751302e-001	9.757935e-001	9.803355e-001	9.857028e-001	9.922025e-001	1.001563e+000	1.005116e+000	1.007839e+000	1.009095e+000	1.007769e+000	1.006738e+000	1.004218e+000	1.002141e+000	9.992624e-001	9.969044e-001	6.507381e-001	8.247133e-001	9.906979e-001	9.896530e-001	9.886207e-001	9.910609e-001	6.482732e-001	6.550739e-001	6.617011e-001	6.701637e-001	6.787670e-001	6.886417e-001	9.030196e-001	9.300371e-001	1.011137e+000	1.015079e+000	1.017610e+000	9.175832e-001	9.189753e-001	9.216837e-001	9.603730e-001	9.922614e-001	1.024905e+000	7.609805e-001	7.763841e-001	7.938600e-001	8.122242e-001	6.160768e-001	6.161862e-001	6.164478e-001	6.172356e-001	1.002496e+000	1.029324e+000	1.015938e+000	9.358327e-001	9.404015e-001	9.441963e-001	9.495276e-001	7.634806e-001	7.678576e-001	8.006699e-001	1.149559e+000	1.112360e+000	1.081184e+000	1.154676e+000	1.174840e+000	9.798293e-001	8.874582e-001	1.198621e+000	1.083953e+000	1.242752e+000	1.073202e+000	8.141622e-001	7.269317e-001	1.097082e+000	1.189439e+000	1.268920e+000	1.313298e+000	1.313782e+000	1.304934e+000	1.259342e+000	1.119777e+000	6.302613e-001	1.085893e+000	1.105610e+000	1.051357e+000	1.006228e+000	9.107889e-001	1.104306e+000	1.004811e+000	1.038414e+000	8.016114e-001	6.272612e-001	9.914251e-001	1.005783e+000	6.208167e-001	9.271429e-001	6.255259e-001	1.099123e+000	9.040853e-001	1.144966e+000	1.089027e+000	1.310141e+000	1.165909e+000	1.155091e+000	1.044635e+000	1.049413e+000	1.276873e+000	1.065215e+000	1.221485e+000	1.057451e+000	1.215698e+000	1.155372e+000	1.160841e+000	1.124405e+000	9.124514e-001	8.794042e-001	1.093965e+000	1.008310e+000	1.048397e+000	1.100162e+000	9.686176e-001	1.244109e+000	6.326053e-001	6.388470e-001	6.419322e-001	9.578460e-001	1.128192e+000	1.159355e+000	1.288113e+000	1.099610e+000	1.020152e+000	1.021412e+000	1.023030e+000	1.024363e+000	9.214087e-001	9.406280e-001	1.026998e+000	1.029468e+000	1.034011e+000	1.039402e+000	1.070574e+000	1.076129e+000	9.972726e-001	1.111231e+000	9.155780e-001	9.179236e-001	9.120242e-001	9.141677e-001	1.058380e+000	1.064487e+000	8.337270e-001	8.203349e-001	1.090520e+000	1.095220e+000	9.895100e-001	8.714836e-001	8.561646e-001	8.477810e-001	9.329593e-001	1.026344e+000	1.003118e+000	9.803843e-001	9.603387e-001	9.169525e-001	9.140591e-001	9.119329e-001	9.092674e-001	9.098670e-001	8.037582e-001	7.988217e-001	7.900547e-001	7.863648e-001	7.797239e-001	1.078481e+000	1.072454e+000	1.065512e+000	6.269488e-001	6.250848e-001	6.227762e-001	6.211603e-001	6.194489e-001	8.735453e-001	8.974495e-001	6.494899e-001	6.533981e-001	7.352276e-001	7.514443e-001	7.663058e-001	9.966641e-001	9.878414e-001	9.852189e-001	9.823355e-001	9.849276e-001	9.865668e-001	9.913054e-001	9.970102e-001	1.001483e+000	1.004964e+000	1.003874e+000	1.000167e+000	9.960086e-001	9.874129e-001	9.982873e-001	6.622122e-001	6.666425e-001	6.767153e-001	6.819999e-001	6.939201e-001	7.036498e-001	7.150497e-001	9.221243e-001	9.471485e-001	1.012759e+000	1.015990e+000	1.017906e+000	9.200635e-001	9.225179e-001	9.746240e-001	1.004869e+000	1.034498e+000	7.807574e-001	7.959890e-001	8.133432e-001	8.333709e-001	8.530462e-001	6.200650e-001	6.200634e-001	6.223701e-001	6.242532e-001	1.027902e+000	1.016543e+000	9.399106e-001	9.481949e-001	7.786030e-001	7.757822e-001	7.934850e-001	8.310706e-001	1.145627e+000	1.137010e+000	1.187335e+000	1.281799e+000	1.165192e+000	1.086724e+000	1.094351e+000	1.225718e+000	1.060501e+000	1.122951e+000	1.096304e+000	1.269602e+000	1.075786e+000	1.166043e+000	6.360981e-001	1.154400e+000	1.124742e+000	1.201281e+000	1.143878e+000	1.082122e+000	9.282578e-001	1.089339e+000	8.989368e-001	1.055735e+000	1.046965e+000	9.476663e-001	9.010234e-001	8.218378e-001	1.241582e+000	9.142519e-001	9.360294e-001	9.189685e-001	7.609027e-001	1.078884e+000	1.012106e+000	1.248196e+000	1.097237e+000	1.077442e+000	1.149201e+000	1.084115e+000	1.311137e+000	1.256957e+000	1.101358e+000	9.863284e-001	6.248541e-001	6.256046e-001	1.099411e+000	1.154749e+000	1.115101e+000	1.291906e+000	1.159468e+000	1.054884e+000	1.225979e+000	1.207461e+000	9.320670e-001	1.098813e+000	1.053444e+000	1.044878e+000	6.774829e-001	6.453656e-001	6.569842e-001	9.765746e-001	1.151719e+000	1.177655e+000	1.122325e+000	1.022243e+000	1.026477e+000	9.531158e-001	1.032461e+000	1.039826e+000	1.072471e+000	1.106686e+000	9.183779e-001	1.062017e+000	1.067203e+000	8.399340e-001	1.091380e+000	9.944421e-001	1.002024e+000	8.784892e-001	8.609171e-001	9.335525e-001	1.033582e+000	1.010690e+000	9.893770e-001	9.748143e-001	9.198255e-001	9.144395e-001	9.122037e-001	8.057997e-001	7.939523e-001	1.073346e+000	1.067327e+000	6.252228e-001	6.239571e-001	9.152115e-001	6.704556e-001	7.850414e-001	1.001218e+000	9.976313e-001	9.907577e-001	9.910942e-001	9.948055e-001	9.983794e-001	1.002770e+000	1.002153e+000	9.996772e-001	9.965886e-001	9.927782e-001	9.871040e-001	9.914314e-001	1.010917e+000	6.859477e-001	7.030771e-001	7.206180e-001	7.286502e-001	7.444287e-001	9.401569e-001	9.637450e-001	1.009454e+000	1.015232e+000	1.019091e+000	9.221242e-001	9.247052e-001	9.879564e-001	1.015235e+000	1.042840e+000	1.069546e+000	8.019501e-001	8.169894e-001	8.336207e-001	8.534156e-001	8.763327e-001	8.911102e-001	6.259242e-001	6.310418e-001	1.036386e+000	1.027274e+000	9.400832e-001	9.564082e-001	9.662072e-001	7.939676e-001	8.323025e-001	1.103959e+000	1.147476e+000	1.141924e+000	1.120960e+000	1.009279e+000	1.094805e+000	1.150926e+000	1.118626e+000	1.194408e+000	1.138767e+000	1.128982e+000	1.111452e+000	1.144708e+000	1.228768e+000	1.251125e+000	1.068818e+000	9.917741e-001	6.449169e-001	1.110869e+000	1.038340e+000	1.098150e+000	9.215365e-001	1.121489e+000	1.176813e+000	9.157103e-001	1.059476e+000	9.556452e-001	9.344840e-001	1.083123e+000	1.087649e+000	1.078060e+000	1.060182e+000	1.149270e+000	1.084578e+000	1.089445e+000	1.056972e+000	6.669804e-001	1.001702e+000	9.741146e-001	9.641166e-001	1.133072e+000	1.138393e+000	1.292998e+000	1.078578e+000	1.062909e+000	1.160229e+000	1.092295e+000	1.209089e+000	1.157773e+000	9.299507e-001	1.238360e+000	9.516854e-001	9.316056e-001	1.079548e+000	1.262337e+000	1.074048e+000	1.097011e+000	9.835034e-001	1.272086e+000	1.159563e+000	9.842606e-001	1.224899e+000	1.210468e+000	6.