# vtk DataFile Version 3.0
vtk output
ASCII
DATASET UNSTRUCTURED_GRID
POINTS 5233 float
9.997500e-001	-3.632965e-005	0.0	9.990000e-001	-1.452970e-004	0.0	9.977600e-001	-3.255843e-004	0.0	9.960200e-001	-5.795414e-004	0.0	9.937800e-001	-9.095597e-004	0.0	9.910500e-001	-1.318319e-003	0.0	9.878400e-001	-1.809520e-003	0.0	9.841300e-001	-2.390680e-003	0.0	9.799500e-001	-3.057987e-003	0.0	9.752800e-001	-3.809596e-003	0.0	9.701500e-001	-4.629622e-003	0.0	9.645400e-001	-5.507033e-003	0.0	9.584700e-001	-6.426509e-003	0.0	9.519400e-001	-7.383266e-003	0.0	9.449600e-001	-8.381066e-003	0.0	9.375400e-001	-9.432200e-003	0.0	9.296900e-001	-1.055221e-002	0.0	9.214000e-001	-1.175608e-002	0.0	9.127000e-001	-1.304378e-002	0.0	9.035800e-001	-1.440896e-002	0.0	8.940600e-001	-1.582896e-002	0.0	8.841500e-001	-1.727386e-002	0.0	8.738500e-001	-1.871116e-002	0.0	8.631800e-001	-2.010643e-002	0.0	8.521600e-001	-2.143085e-002	0.0	8.407700e-001	-2.266825e-002	0.0	8.290500e-001	-2.380473e-002	0.0	8.170100e-001	-2.483891e-002	0.0	8.046400e-001	-2.577796e-002	0.0	7.919700e-001	-2.663083e-002	0.0	7.790100e-001	-2.741093e-002	0.0	7.657800e-001	-2.813178e-002	0.0	7.522800e-001	-2.880713e-002	0.0	7.385200e-001	-2.944831e-002	0.0	7.245300e-001	-3.006368e-002	0.0	7.103200e-001	-3.066056e-002	0.0	6.958900e-001	-3.124497e-002	0.0	6.812700e-001	-3.182053e-002	0.0	6.664700e-001	-3.239099e-002	0.0	6.515000e-001	-3.295974e-002	0.0	6.363800e-001	-3.352964e-002	0.0	6.211300e-001	-3.410350e-002	0.0	6.057600e-001	-3.468428e-002	0.0	5.902800e-001	-3.527464e-002	0.0	5.747100e-001	-3.587627e-002	0.0	5.590600e-001	-3.649048e-002	0.0	5.433600e-001	-3.711681e-002	0.0	5.276100e-001	-3.775488e-002	0.0	5.118400e-001	-3.840194e-002	0.0	4.960500e-001	-3.905531e-002	0.0	4.802700e-001	-3.970998e-002	0.0	4.645100e-001	-4.036083e-002	0.0	4.487800e-001	-4.100192e-002	0.0	4.331100e-001	-4.162596e-002	0.0	4.175000e-001	-4.222647e-002	0.0	4.019700e-001	-4.279596e-002	0.0	3.865400e-001	-4.332704e-002	0.0	3.712300e-001	-4.381255e-002	0.0	3.560400e-001	-4.424629e-002	0.0	3.409900e-001	-4.462185e-002	0.0	3.261100e-001	-4.493328e-002	0.0	3.114000e-001	-4.517593e-002	0.0	2.968700e-001	-4.534547e-002	0.0	2.825500e-001	-4.543805e-002	0.0	2.684500e-001	-4.545078e-002	0.0	2.545700e-001	-4.538126e-002	0.0	2.409400e-001	-4.522777e-002	0.0	2.275700e-001	-4.498914e-002	0.0	2.144700e-001	-4.466462e-002	0.0	2.016600e-001	-4.425420e-002	0.0	1.891400e-001	-4.375760e-002	0.0	1.769300e-001	-4.317555e-002	0.0	1.650400e-001	-4.250873e-002	0.0	1.534900e-001	-4.175870e-002	0.0	1.422900e-001	-4.092681e-002	0.0	1.314400e-001	-4.001366e-002	0.0	1.209500e-001	-3.902060e-002	0.0	1.108500e-001	-3.795134e-002	0.0	1.011300e-001	-3.680573e-002	0.0	9.181000e-002	-3.558688e-002	0.0	8.290000e-002	-3.429714e-002	0.0	7.440000e-002	-3.293738e-002	0.0	6.633000e-002	-3.151180e-002	0.0	5.869000e-002	-3.002149e-002	0.0	5.149000e-002	-2.846938e-002	0.0	4.474000e-002	-2.685881e-002	0.0	3.844000e-002	-2.519080e-002	0.0	3.260000e-002	-2.346885e-002	0.0	2.723000e-002	-2.169707e-002	0.0	2.232000e-002	-1.987248e-002	0.0	1.790000e-002	-1.800693e-002	0.0	1.395000e-002	-1.609221e-002	0.0	1.049000e-002	-1.413686e-002	0.0	7.520000e-003	-1.214014e-002	0.0	5.040000e-003	-1.009895e-002	0.0	3.050000e-003	-8.005864e-003	0.0	1.560000e-003	-5.861394e-003	0.0	5.600000e-004	-3.626213e-003	0.0	6.000000e-005	-1.252699e-003	0.0	0.000000e+000	0.000000e+000	0.0	6.000000e-005	1.238612e-003	0.0	5.600000e-004	3.623217e-003	0.0	1.560000e-003	5.950192e-003	0.0	3.050000e-003	8.269575e-003	0.0	5.040000e-003	1.061796e-002	0.0	7.520000e-003	1.298662e-002	0.0	1.049000e-002	1.537442e-002	0.0	1.395000e-002	1.777513e-002	0.0	1.790000e-002	2.017985e-002	0.0	2.232000e-002	2.256810e-002	0.0	2.723000e-002	2.494128e-002	0.0	3.260000e-002	2.727554e-002	0.0	3.844000e-002	2.956706e-002	0.0	4.474000e-002	3.180356e-002	0.0	5.149000e-002	3.397436e-002	0.0	5.869000e-002	3.607297e-002	0.0	6.633000e-002	3.809074e-002	0.0	7.440000e-002	4.002036e-002	0.0	8.290000e-002	4.185787e-002	0.0	9.181000e-002	4.359594e-002	0.0	1.011300e-001	4.523240e-002	0.0	1.108500e-001	4.676382e-002	0.0	1.209500e-001	4.818628e-002	0.0	1.314400e-001	4.950072e-002	0.0	1.422900e-001	5.070334e-002	0.0	1.534900e-001	5.179373e-002	0.0	1.650400e-001	5.277261e-002	0.0	1.769300e-001	5.363976e-002	0.0	1.891400e-001	5.439463e-002	0.0	2.016600e-001	5.503762e-002	0.0	2.144700e-001	5.556880e-002	0.0	2.275700e-001	5.598916e-002	0.0	2.409400e-001	5.629891e-002	0.0	2.545700e-001	5.649871e-002	0.0	2.684500e-001	5.658918e-002	0.0	2.825500e-001	5.657111e-002	0.0	2.968700e-001	5.644559e-002	0.0	3.114000e-001	5.621380e-002	0.0	3.261100e-001	5.587769e-002	0.0	3.409900e-001	5.543942e-002	0.0	3.560400e-001	5.490122e-002	0.0	3.712300e-001	5.426689e-002	0.0	3.865400e-001	5.354084e-002	0.0	4.019700e-001	5.272716e-002	0.0	4.175000e-001	5.183164e-002	0.0	4.331100e-001	5.086088e-002	0.0	4.487800e-001	4.982225e-002	0.0	4.645100e-001	4.872229e-002	0.0	4.802700e-001	4.757003e-002	0.0	4.960500e-001	4.637335e-002	0.0	5.118400e-001	4.514008e-002	0.0	5.276100e-001	4.387941e-002	0.0	5.433600e-001	4.259767e-002	0.0	5.590600e-001	4.130293e-002	0.0	5.747100e-001	3.999988e-002	0.0	5.902800e-001	3.869471e-002	0.0	6.057600e-001	3.739086e-002	0.0	6.211300e-001	3.609161e-002	0.0	6.363800e-001	3.479857e-002	0.0	6.515000e-001	3.351279e-002	0.0	6.664700e-001	3.223600e-002	0.0	6.812700e-001	3.097028e-002	0.0	6.958900e-001	2.971770e-002	0.0	7.103200e-001	2.848166e-002	0.0	7.245300e-001	2.726904e-002	0.0	7.385200e-001	2.608613e-002	0.0	7.522800e-001	2.494210e-002	0.0	7.657800e-001	2.384936e-002	0.0	7.790100e-001	2.281946e-002	0.0	7.919700e-001	2.186295e-002	0.0	8.046400e-001	2.099017e-002	0.0	8.170100e-001	2.020724e-002	0.0	8.290500e-001	1.951640e-002	0.0	8.407700e-001	1.891137e-002	0.0	8.521600e-001	1.838082e-002	0.0	8.631800e-001	1.790893e-002	0.0	8.738500e-001	1.747332e-002	0.0	8.841500e-001	1.705185e-002	0.0	8.940600e-001	1.662281e-002	0.0	9.035800e-001	1.616474e-002	0.0	9.127000e-001	1.565617e-002	0.0	9.214000e-001	1.507289e-002	0.0	9.296900e-001	1.438255e-002	0.0	9.375400e-001	1.355090e-002	0.0	9.449600e-001	1.254251e-002	0.0	9.519400e-001	1.133964e-002	0.0	9.584700e-001	9.956366e-003	0.0	9.645400e-001	8.447473e-003	0.0	9.701500e-001	6.900365e-003	0.0	9.752800e-001	5.423075e-003	0.0	9.799500e-001	4.100208e-003	0.0	9.841300e-001	2.996145e-003	0.0	9.878400e-001	2.119194e-003	0.0	9.910500e-001	1.454818e-003	0.0	9.937800e-001	9.590107e-004	0.0	9.960200e-001	5.932395e-004	0.0	9.977600e-001	3.281226e-004	0.0	9.990000e-001	1.455285e-004	0.0	9.997500e-001	3.633332e-005	0.0	1.000000e+000	0.000000e+000	0.0	1.984229e+001	2.506660e+000	0.0	1.937166e+001	4.973800e+000	0.0	1.859553e+001	7.362490e+000	0.0	1.752613e+001	9.635070e+000	0.0	1.618034e+001	1.175571e+001	0.0	1.457937e+001	1.369094e+001	0.0	1.274848e+001	1.541027e+001	0.0	1.071654e+001	1.688656e+001	0.0	8.515590e+000	1.809654e+001	0.0	6.180340e+000	1.902113e+001	0.0	3.747630e+000	1.964575e+001	0.0	1.255810e+000	1.996053e+001	0.0	-1.255810e+000	1.996053e+001	0.0	-3.747630e+000	1.964574e+001	0.0	-6.180340e+000	1.902113e+001	0.0	-8.515590e+000	1.809654e+001	0.0	-1.071654e+001	1.688656e+001	0.0	-1.274848e+001	1.541026e+001	0.0	-1.457937e+001	1.369094e+001	0.0	-1.618034e+001	1.175570e+001	0.0	-1.752613e+001	9.635070e+000	0.0	-1.859553e+001	7.362490e+000	0.0	-1.937166e+001	4.973800e+000	0.0	-1.984229e+001	2.506660e+000	0.0	-2.000000e+001	0.000000e+000	0.0	-1.984229e+001	-2.506670e+000	0.0	-1.937166e+001	-4.973800e+000	0.0	-1.859553e+001	-7.362490e+000	0.0	-1.752613e+001	-9.635080e+000	0.0	-1.618034e+001	-1.175571e+001	0.0	-1.457937e+001	-1.369094e+001	0.0	-1.274848e+001	-1.541027e+001	0.0	-1.071653e+001	-1.688656e+001	0.0	-8.515580e+000	-1.809654e+001	0.0	-6.180340e+000	-1.902113e+001	0.0	-3.747620e+000	-1.964575e+001	0.0	-1.255810e+000	-1.996053e+001	0.0	1.255810e+000	-1.996053e+001	0.0	3.747630e+000	-1.964574e+001	0.0	6.180340e+000	-1.902113e+001	0.0	8.515590e+000	-1.809654e+001	0.0	1.071654e+001	-1.688656e+001	0.0	1.274848e+001	-1.541026e+001	0.0	1.457937e+001	-1.369094e+001	0.0	1.618034e+001	-1.175570e+001	0.0	1.752614e+001	-9.635070e+000	0.0	1.859553e+001	-7.362490e+000	0.0	1.937166e+001	-4.973790e+000	0.0	1.984229e+001	-2.506660e+000	0.0	2.000000e+001	0.000000e+000	0.0	6.115409e-002	-3.779797e-002	0.0	6.597505e-001	-4.648349e-002	0.0	4.260598e-001	6.564537e-002	0.0	6.896951e-001	4.388439e-002	0.0	3.792845e-001	-5.767588e-002	0.0	9.994592e-001	-7.326780e-004	0.0	9.985384e-001	-1.330570e-003	0.0	7.733751e-001	-3.977215e-002	0.0	6.893890e-001	-4.499167e-002	0.0	-1.165484e-003	5.711622e-003	0.0	7.463105e-001	-4.168461e-002	0.0	5.836195e-001	5.372817e-002	0.0	9.927611e-001	-3.622873e-003	0.0	9.898584e-001	-4.519106e-003	0.0	5.991500e-001	5.234339e-002	0.0	7.182833e-001	-4.340248e-002	0.0	-1.401452e-003	6.851681e-004	0.0	9.864652e-001	-5.501539e-003	0.0	9.825904e-001	-6.559899e-003	0.0	-1.105040e-003	-5.619635e-003	0.0	6.446917e-001	-4.720377e-002	0.0	8.241451e-001	-3.509049e-002	0.0	7.993510e-001	-3.760833e-002	0.0	3.489068e-001	6.891250e-002	0.0	8.476137e-001	-3.219715e-002	0.0	2.475055e-001	6.883715e-002	0.0	8.696873e-001	-2.895213e-002	0.0	1.010515e-002	1.977195e-002	0.0	8.902532e-001	-2.549600e-002	0.0	7.742227e-002	-4.143507e-002	0.0	9.092395e-001	-2.203244e-002	0.0	-1.664820e-003	-2.806880e-003	0.0	9.421890e-001	-1.568797e-002	0.0	9.265737e-001	-1.873836e-002	0.0	1.834576e-002	-2.302776e-002	0.0	4.258314e-001	-5.633993e-002	0.0	8.588346e-001	-3.060995e-002	0.0	9.560442e-001	-1.285126e-002	0.0	9.782275e-001	-7.710242e-003	0.0	9.680784e-001	-1.017790e-002	0.0	1.586004e-001	-5.272536e-002	0.0	8.999504e-001	-2.375246e-002	0.0	7.599734e-001	-4.075619e-002	0.0	9.971098e-001	-2.070653e-003	0.0	5.987346e-001	-4.929842e-002	0.0	4.415062e-001	-5.579941e-002	0.0	5.361688e-001	-5.201009e-002	0.0	4.730161e-001	-5.461678e-002	0.0	5.046061e-001	-5.333955e-002	0.0	4.888006e-001	-5.398636e-002	0.0	1.253111e-001	-4.913651e-002	0.0	2.825955e-002	-2.755631e-002	0.0	3.947083e-001	-5.728549e-002	0.0	4.663835e-002	-3.389
[...]
POINT_DATA 5233

SCALARS Density float 1
LOOKUP_TABLE default
1.194583e+000	1.171193e+000	1.156661e+000	1.144976e+000	1.135079e+000	1.126254e+000	1.117392e+000	1.108130e+000	1.098184e+000	1.087804e+000	1.077636e+000	1.068567e+000	1.061274e+000	1.055825e+000	1.051616e+000	1.047585e+000	1.042600e+000	1.035786e+000	1.026694e+000	1.015349e+000	1.002210e+000	9.879901e-001	9.736393e-001	9.603582e-001	9.492306e-001	9.410721e-001	9.362210e-001	9.345208e-001	9.353382e-001	9.378962e-001	9.414505e-001	9.453741e-001	9.492666e-001	9.528477e-001	9.560257e-001	9.587792e-001	9.611346e-001	9.631535e-001	9.648523e-001	9.662746e-001	9.674010e-001	9.682288e-001	9.687097e-001	9.688142e-001	9.684907e-001	9.677117e-001	9.664448e-001	9.646807e-001	9.624064e-001	9.596242e-001	9.563419e-001	9.525941e-001	9.484196e-001	9.438807e-001	9.390084e-001	9.338679e-001	9.284998e-001	9.229860e-001	9.173865e-001	9.117692e-001	9.062234e-001	9.008052e-001	8.956120e-001	8.906910e-001	8.861558e-001	8.820737e-001	8.785974e-001	8.758181e-001	8.738487e-001	8.726817e-001	8.723123e-001	8.727100e-001	8.739363e-001	8.759784e-001	8.788069e-001	8.822849e-001	8.864086e-001	8.912308e-001	8.967480e-001	9.029492e-001	9.098939e-001	9.175945e-001	9.261350e-001	9.355694e-001	9.460149e-001	9.576679e-001	9.706828e-001	9.853219e-001	1.001964e+000	1.020938e+000	1.042934e+000	1.068809e+000	1.099378e+000	1.136051e+000	1.179767e+000	1.229587e+000	1.280729e+000	1.334160e+000	1.352405e+000	1.347753e+000	1.342725e+000	1.310841e+000	1.246720e+000	1.193100e+000	1.143270e+000	1.098680e+000	1.059295e+000	1.024165e+000	9.922126e-001	9.630462e-001	9.362269e-001	9.113189e-001	8.882481e-001	8.667825e-001	8.468186e-001	8.283245e-001	8.110946e-001	7.949228e-001	7.797908e-001	7.656925e-001	7.527378e-001	7.409754e-001	7.302143e-001	7.200405e-001	7.102292e-001	7.009171e-001	6.925068e-001	6.849350e-001	6.778536e-001	6.709226e-001	6.642148e-001	6.579321e-001	6.522563e-001	6.471225e-001	6.424256e-001	6.379990e-001	6.337303e-001	6.295897e-001	6.254828e-001	6.214444e-001	6.175245e-001	6.139174e-001	6.107646e-001	6.080010e-001	6.054452e-001	6.031138e-001	6.010424e-001	5.994519e-001	5.983025e-001	5.975544e-001	5.980596e-001	5.998717e-001	6.018966e-001	6.021050e-001	6.137613e-001	7.326860e-001	9.401469e-001	1.008249e+000	1.001458e+000	9.946461e-001	9.966255e-001	9.983273e-001	9.992365e-001	1.000692e+000	1.002701e+000	1.004991e+000	1.007402e+000	1.009789e+000	1.011904e+000	1.013502e+000	1.014304e+000	1.014058e+000	1.012539e+000	1.009596e+000	1.005203e+000	9.994245e-001	9.924467e-001	9.844621e-001	9.756717e-001	9.661241e-001	9.559282e-001	9.454986e-001	9.362139e-001	9.307477e-001	9.331466e-001	9.471007e-001	9.732701e-001	1.007307e+000	1.042111e+000	1.073220e+000	1.098546e+000	1.117166e+000	1.129506e+000	1.137214e+000	1.142078e+000	1.146796e+000	1.152946e+000	1.162929e+000	1.176278e+000	1.170103e+000	9.988325e-001	9.996367e-001	9.996893e-001	9.995345e-001	9.994188e-001	9.992748e-001	9.991074e-001	9.989025e-001	9.986819e-001	9.985326e-001	9.984541e-001	9.985410e-001	9.987505e-001	9.991488e-001	9.994841e-001	9.997626e-001	9.999252e-001	1.000032e+000	1.000105e+000	1.000142e+000	1.000166e+000	1.000179e+000	1.000190e+000	1.000202e+000	1.000211e+000	1.000225e+000	1.000246e+000	1.000273e+000	1.000311e+000	1.000368e+000	1.000432e+000	1.000541e+000	1.000649e+000	1.000837e+000	1.001018e+000	1.001250e+000	1.001502e+000	1.001616e+000	1.001657e+000	1.001535e+000	1.001391e+000	1.001180e+000	1.000986e+000	1.000796e+000	1.000627e+000	1.000429e+000	1.000273e+000	1.000271e+000	9.994115e-001	9.982782e-001	9.430875e-001	9.660831e-001	6.080798e-001	9.991079e-001	9.277832e-001	1.174220e+000	1.162103e+000	9.466952e-001	9.630071e-001	1.291779e+000	9.531734e-001	6.309788e-001	1.128914e+000	1.120076e+000	8.557995e-001	9.587495e-001	1.342565e+000	1.111240e+000	1.102156e+000	1.314509e+000	9.672174e-001	9.412871e-001	9.413207e-001	6.251617e-001	9.513553e-001	6.572744e-001	9.719945e-001	1.071604e+000	9.976306e-001	9.242702e-001	1.021143e+000	1.342292e+000	1.049508e+000	1.038306e+000	1.055974e+000	9.426421e-001	9.606040e-001	1.059791e+000	1.092734e+000	1.074321e+000	8.814605e-001	1.010005e+000	9.499672e-001	1.148933e+000	9.688003e-001	9.470822e-001	9.655256e-001	9.549562e-001	9.611709e-001	9.582942e-001	8.920319e-001	1.013047e+000	9.329407e-001	9.663163e-001	9.379067e-001	9.067043e-001	9.171963e-001	9.955254e-001	8.968851e-001	1.044417e+000	8.842562e-001	8.780764e-001	9.162482e-001	9.025980e-001	9.680346e-001	8.794895e-001	9.686048e-001	9.846705e-001	1.033006e+000	1.138370e+000	1.148802e+000	1.004294e+000	1.030618e+000	1.054361e+000	1.083283e+000	1.246150e+000	9.448747e-001	8.848201e-001	9.670108e-001	9.561224e-001	9.436523e-001	8.969404e-001	8.798345e-001	9.686268e-001	9.646873e-001	9.540779e-001	1.189015e+000	1.082497e+000	9.225115e-001	8.783913e-001	1.207156e+000	8.819518e-001	9.090411e-001	9.016675e-001	8.883593e-001	9.512070e-001	9.610445e-001	1.329994e+000	1.276621e+000	6.020808e-001	1.345342e+000	9.476011e-001	8.570011e-001	8.989613e-001	7.489293e-001	6.109092e-001	1.146102e+000	5.996518e-001	6.013407e-001	1.059015e+000	1.002038e+000	9.820880e-001	5.999998e-001	6.054533e-001	6.173419e-001	9.502993e-001	9.660083e-001	8.040216e-001	1.082714e+000	9.751965e-001	9.464571e-001	7.741426e-001	8.381808e-001	6.425656e-001	6.520296e-001	6.987808e-001	6.337337e-001	6.032137e-001	6.139912e-001	7.168467e-001	7.377404e-001	1.005411e+000	6.834573e-001	6.693892e-001	9.958851e-001	6.020799e-001	1.005755e+000	1.001775e+000	1.012130e+000	1.009712e+000	1.005921e+000	1.011287e+000	9.742460e-001	9.958483e-001	9.559248e-001	9.577142e-001	1.031473e+000	1.001425e+000	9.893357e-001	1.012218e+000	1.009210e+000	1.007822e+000	1.011227e+000	1.000146e+000	1.003703e+000	9.949481e-001	9.982026e-001	6.008589e-001	1.009224e+000	6.762650e-001	6.630692e-001	7.073882e-001	6.909428e-001	8.771973e-001	7.270935e-001	1.036397e+000	9.223986e-001	8.785581e-001	1.152635e+000	1.066389e+000	9.403034e-001	9.118984e-001	9.635863e-001	1.198983e+000	9.747902e-001	1.110164e+000	7.885338e-001	8.205474e-001	6.471599e-001	7.609650e-001	1.101627e+000	1.115701e+000	6.381128e-001	1.125782e+000	1.133192e+000	6.294483e-001	6.210833e-001	9.455917e-001	1.186265e+000	1.155109e+000	1.164545e+000	9.680602e-001	9.800508e-001	1.139495e+000	5.992677e-001	1.233087e+000	1.113340e+000	9.331841e-001	8.878180e-001	8.924086e-001	8.310208e-001	1.268730e+000	1.306260e+000	8.990916e-001	9.630887e-001	1.025753e+000	1.149098e+000	6.097606e-001	9.646842e-001	9.490394e-001	1.113574e+000	9.127535e-001	9.627308e-001	9.499415e-001	9.231038e-001	1.290652e+000	8.851999e-001	1.088843e+000	1.064235e+000	8.905241e-001	9.611947e-001	9.671405e-001	9.500789e-001	9.313553e-001	9.325015e-001	1.005805e+000	9.471716e-001	1.111037e+000	1.011889e+000	9.982673e-001	1.005938e+000	7.709616e-001	9.989796e-001	7.157299e-001	9.930367e-001	1.113346e+000	6.342772e-001	6.023092e-001	9.807449e-001	9.872480e-001	1.122555e+000	1.000750e+000	1.086627e+000	6.698796e-001	6.389100e-001	6.762880e-001	7.842533e-001	9.660517e-001	8.846689e-001	1.075497e+000	7.355234e-001	8.877969e-001	1.047005e+000	1.130096e+000	9.809769e-001	8.877731e-001	1.199302e+000	1.144909e+000	1.137169e+000	1.148943e+000	1.230071e+000	1.183833e+000	1.336335e+000	1.337073e+000	1.063528e+000	1.207921e+000	9.506457e-001	1.150799e+000	1.130773e+000	6.148055e-001	9.662393e-001	1.105047e+000	9.831263e-001	7.166152e-001	1.122032e+000	1.320668e+000	9.460621e-001	6.182575e-001	9.551320e-001	6.532580e-001	9.722602e-001	9.945355e-001	9.405018e-001	1.016331e+000	1.033900e+000	1.052311e+000	1.021569e+000	1.057977e+000	1.071351e+000	1.096391e+000	8.983888e-001	9.541040e-001	9.514998e-001	1.140236e+000	9.537659e-001	9.571113e-001	9.600259e-001	1.041351e+000	9.372382e-001	9.417882e-001	9.176798e-001	9.884068e-001	1.040802e+000	1.046776e+000	8.940754e-001	9.156987e-001	9.674680e-001	9.688221e-001	1.079257e+000	1.087717e+000	9.590635e-001	9.566871e-001	9.091614e-001	9.033963e-001	9.683081e-001	9.687385e-001	9.744959e-001	9.619615e-001	1.117205e+000	9.226408e-001	9.276091e-001	8.859581e-001	8.849085e-001	8.866082e-001	8.887734e-001	9.033797e-001	9.079836e-001	8.916814e-001	1.330538e+000	1.221180e+000	9.092317e-001	1.101651e+000	6.036969e-001	6.030172e-001	6.044553e-001	6.063432e-001	1.068305e+000	1.023878e+000	9.626853e-001	6.088407e-001	6.115956e-001	6.219911e-001	9.681500e-001	9.668047e-001	8.487380e-001	8.676638e-001	6.639808e-001	6.584177e-001	7.251990e-001	7.468606e-001	7.586259e-001	1.009940e+000	1.004279e+000	1.002556e+000	1.009045e+000	1.008323e+000	9.745096e-001	9.981926e-001	1.002524e+000	1.009730e+000	1.010232e+000	1.007666e+000	1.006040e+000	1.000889e+000	9.995362e-001	9.951859e-001	9.950886e-001	5.944489e-001	6.046482e-001	1.006865e+000	9.720426e-001	6.830984e-001	6.905748e-001	6.985170e-001	7.069772e-001	1.042587e+000	9.322513e-001	9.570633e-001	9.463478e-001	9.471061e-001	9.625227e-001	9.645809e-001	1.189472e+000	9.835704e-001	7.987065e-001	8.143214e-001	6.435282e-001	6.483003e-001	6.258345e-001	6.299172e-001	9.600247e-001	9.593295e-001	9.685489e-001	9.679960e-001	1.003984e+000	1.258087e+000	8.951320e-001	1.296609e+000	9.369955e-001	9.056765e-001	9.528001e-001	9.656126e-001	1.030187e+000	1.111987e+000	1.102131e+000	1.021098e+000	1.180708e+000	1.120677e+000	1.154012e+000	1.166211e+000	1.141134e+000	1.189010e+000	1.069990e+000	1.308457e+000	9.303666e-001	1.037404e+000	1.115711e+000	5.928568e-001	1.163130e+000	1.178948e+000	9.635268e-001	1.242195e+000	9.618514e-001	1.093549e+000	9.829621e-001	1.148350e+000	9.186813e-001	9.736607e-001	9.650071e-001	1.124205e+000	1.119898e+000	1.075612e+000	6.076272e-001	9.875337e-001	9.980799e-001	1.127513e+000	6.073064e-001	6.654609e-001	6.445200e-001	7.351299e-001	8.602818e-001	1.160527e+000	1.267845e+000	1.246679e+000	1.048104e+000	1.282160e+000	1.068616e+000	9.387488e-001	1.328435e+000	8.970211e-001	9.528733e-001	1.048697e+000	1.111225e+000	1.005416e+000	1.007811e+000	9.997391e-001	1.090201e+000	1.002784e+000	9.864975e-001	9.913678e-001	6.494897e-001	6.598410e-001	6.840875e-001	7.957359e-001	9.673113e-001	9.662646e-001	8.913874e-001	1.078922e+000	7.452144e-001	1.058870e+000	1.134954e+000	1.145321e+000	1.215890e+000	1.210734e+000	1.314172e+000	1.029268e+000	1.180076e+000	1.170287e+000	1.075850e+000	1.107702e+000	6.354792e-001	9.492953e-001	6.230015e-001	9.593211e-001	9.656573e-001	9.929537e-001	1.003123e+000	9.583875e-001	9.480800e-001	1.012883e+000	1.022000e+000	1.055764e+000	1.061945e+000	1.099671e+000	9.559744e-001	9.541961e-001	1.132442e+000	9.561788e-001	9.591175e-001	9.413465e-001	9.454184e-001	1.012011e+000	1.043863e+000	1.049835e+000	9.050667e-001	9.006517e-001	9.669805e-001	9.680075e-001	1.083565e+000	1.091530e+000	9.599882e-001	9.580180e-001	9.228436e-001	9.160306e-001	9.101293e-001	9.686537e-001	9.689854e-001	9.966910e-001	9.826659e-001	9.698664e-001	9.232541e-001	9.279035e-001	9.324855e-001	8.944703e-001	8.926568e-001	8.916490e-001	8.920546e-001	8.934771e-001	9.098212e-001	9.141440e-001	8.957124e-001	9.203361e-001	6.083071e-001	6.104123e-001	1.040320e+000	6.127781e-001	6.158437e-001	6.191612e-001	6.270693e-001	9.729830e-001	8.791541e-001	8.992394e-001	6.712530e-001	6.775801e-001	7.563857e-001	7.691394e-001	7.823381e-001	1.002806e+000	9.768144e-001	9.815860e-001	9.958280e-001	9.997760e-001	1.002956e+000	1.007134e+000	1.008010e+000	1.008208e+000	1.006929e+000	1.005748e+000	1.004300e+000	1.001362e+000	1.000130e+000	9.994811e-001	9.947425e-001	6.055913e-001	6.057074e-001	1.003408e+000	1.007501e+000	8.709213e-001	6.911183e-001	6.984911e-001	7.068286e-001	7.158055e-001	7.254494e-001	9.425622e-001	9.665687e-001	9.522288e-001	9.528705e-001	9.550822e-001	9.616815e-001	9.638276e-001	9.923725e-001	1.019356e+000	8.101131e-001	8.257846e-001	8.425142e-001	6.546006e-001	6.314065e-001	6.356262e-001	6.399284e-001	9.770850e-001	9.717995e-001	9.708450e-001	9.689677e-001	9.686851e-001	9.681086e-001	8.985198e-001	9.019215e-001	1.273491e+000	9.378283e-001	1.125885e+000	1.080337e+000	9.665696e-001	1.285263e+000	1.149408e+000	1.034549e+000	1.041313e+000	1.035778e+000	1.110853e+000	6.149973e-001	1.247475e+000	1.080494e+000	1.171406e+000	1.020953e+000	1.118717e+000	1.227405e+000	9.958021e-001	1.200722e+000	1.168154e+000	1.183513e+000	9.571818e-001	9.045864e-001	1.074870e+000	9.414968e-001	9.463727e-001	9.523927e-001	9.126910e-001	1.092122e+000	5.965125e-001	1.006515e+000	9.946133e-001	1.005562e+000	7.573418e-001	6.806374e-001	1.109788e+000	8.905393e-001	9.845759e-001	1.141385e+000	1.102241e+000	1.133024e+000	1.079829e+000	1.096309e+000	9.655985e-001	1.198673e+000	9.646081e-001	9.628367e-001	1.120128e+000	1.117394e+000	1.145378e+000	1.004824e+000	6.122005e-001	6.624941e-001	1.258627e+000	1.109682e+000	9.969311e-001	9.908554e-001	6.572897e-001	6.684079e-001	6.741209e-001	9.676788e-001	9.669449e-001	1.066841e+000	1.139430e+000	1.170424e+000	1.225272e+000	1.291288e+000	1.054498e+000	1.072753e+000	1.102238e+000	6.155847e-001	9.697629e-001	9.764074e-001	9.931890e-001	1.002185e+000	9.660284e-001	9.557137e-001	1.010950e+000	1.019457e+000	1.027347e+000	1.059601e+000	1.066032e+000	9.584814e-001	9.584194e-001	1.125179e+000	9.556013e-001	9.585259e-001	9.452759e-001	9.489749e-001	1.047506e+000	1.053439e+000	9.125089e-001	9.077041e-001	9.677766e-001	1.087133e+000	1.094667e+000	9.617760e-001	9.601340e-001	9.301656e-001	9.234146e-001	9.177175e-001	9.686174e-001	9.691741e-001	1.019619e+000	1.004410e+000	9.901245e-001	9.773357e-001	9.246733e-001	9.289568e-001	9.331466e-001	9.373565e-001	9.020439e-001	9.002904e-001	8.991353e-001	8.990242e-001	8.996082e-001	9.205748e-001	9.164616e-001	9.011369e-001	6.159974e-001	1.052104e+000	1.036498e+000	6.188456e-001	6.216524e-001	6.253363e-001	6.290791e-001	6.336146e-001	9.104761e-001	9.315707e-001	6.869543e-001	6.942026e-001	7.682301e-001	7.803460e-001	7.942065e-001	8.085207e-001	9.816435e-001	9.841205e-001	9.872583e-001	9.943575e-001	9.976249e-001	1.000453e+000	1.002814e+000	1.005695e+000	1.006062e+000	1.006413e+000	1.005018e+000	1.003652e+000	1.002695e+000	1.001238e+000	1.000073e+000	9.985618e-001	9.977100e-001	6.124138e-001	6.089129e-001	1.001163e+000	1.009174e+000	9.555866e-001	7.243406e-001	7.011238e-001	7.089556e-001	7.166772e-001	7.258543e-001	7.355152e-001	7.461953e-001	9.529990e-001	9.753497e-001	9.589172e-001	9.607693e-001	9.643374e-001	9.611302e-001	9.631053e-001	9.649978e-001	1.000068e+000	1.025897e+000	1.052169e+000	8.228514e-001	8.379811e-001	8.546643e-001	8.721860e-001	6.380235e-001	6.429608e-001	6.475012e-001	6.520652e-001	9.806815e-001	9.863437e-001	9.819050e-001	9.693514e-001	9.693675e-001	9.689766e-001	9.685707e-001	9.031829e-001	9.059598e-001	9.090586e-001	1.119435e+000	1.120613e+000	1.076481e+000	1.163269e+000	1.141894e+000	9.654693e-001	9.456903e-001	1.164461e+000	1.072621e+000	1.210345e+000	1.059132e+000	9.129872e-001	7.825359e-001	1.107912e+000	1.187338e+000	1.258711e+000	1.306177e+000	1.306101e+000	1.295533e+000	1.229849e+000	1.128290e+000	6.719144e-001	1.083219e+000	1.111371e+000	1.045098e+000	9.631761e-001	9.457530e-001	1.110021e+000	9.878108e-001	1.001743e+000	6.092227e-001	6.196748e-001	1.005841e+000	1.003147e+000	6.238213e-001	9.667540e-001	6.646077e-001	1.102317e+000	9.542441e-001	1.154547e+000	1.083636e+000	1.298406e+000	1.176486e+000	1.165611e+000	1.038835e+000	1.042246e+000	1.251063e+000	1.081437e+000	1.187554e+000	1.022305e+000	1.210769e+000	1.164221e+000	1.170966e+000	1.098381e+000	9.223868e-001	9.194238e-001	1.093427e+000	6.093855e-001	1.010919e+000	1.104193e+000	9.673644e-001	1.236386e+000	6.762806e-001	6.844037e-001	6.892306e-001	9.688584e-001	1.134159e+000	1.160949e+000	1.266815e+000	1.078792e+000	9.802838e-001	9.859360e-001	9.944871e-001	1.001943e+000	9.635543e-001	9.742425e-001	1.010475e+000	1.017888e+000	1.025435e+000	1.033016e+000	1.063553e+000	1.069923e+000	9.627318e-001	1.118271e+000	9.550441e-001	9.579865e-001	9.486211e-001	9.520323e-001	1.051660e+000	1.057360e+000	9.198361e-001	9.145129e-001	1.090163e+000	1.097186e+000	9.640616e-001	9.377195e-001	9.302227e-001	9.264679e-001	9.689489e-001	1.026611e+000	1.011611e+000	9.975684e-001	9.856580e-001	9.266359e-001	9.299902e-001	9.342474e-001	9.377350e-001	9.418456e-001	9.091276e-001	9.084314e-001	9.060440e-001	9.069399e-001	9.065072e-001	1.060581e+000	1.047939e+000	1.034984e+000	6.246265e-001	6.289644e-001	6.314301e-001	6.366393e-001	6.396527e-001	9.220826e-001	9.427778e-001	6.982016e-001	7.035787e-001	7.909829e-001	8.063121e-001	8.217563e-001	9.892966e-001	9.894763e-001	9.923005e-001	9.940191e-001	9.968083e-001	9.988413e-001	1.000928e+000	1.003166e+000	1.004078e+000	1.004288e+000	1.001420e+000	9.984457e-001	9.950521e-001	1.006963e+000	7.497254e-001	7.134177e-001	7.191074e-001	7.297609e-001	7.359628e-001	7.479935e-001	7.585275e-001	7.701468e-001	9.637568e-001	9.846980e-001	9.661569e-001	9.683493e-001	9.741178e-001	9.608738e-001	9.636023e-001	1.007154e+000	1.031933e+000	1.056200e+000	8.367986e-001	8.517720e-001	8.676882e-001	8.857628e-001	9.037791e-001	6.456236e-001	6.492189e-001	6.556338e-001	6.609174e-001	9.949812e-001	9.912885e-001	9.698546e-001	9.697526e-001	9.088059e-001	9.099049e-001	9.132296e-001	9.154676e-001	1.156264e+000	1.148011e+000	1.157150e+000	1.270152e+000	1.175727e+000	1.085896e+000	1.094583e+000	1.216833e+000	1.034762e+000	1.131605e+000	1.099060e+000	1.246046e+000	1.063248e+000	1.137358e+000	6.768428e-001	1.162630e+000	1.128617e+000	1.195164e+000	1.117789e+000	1.079562e+000	9.657128e-001	1.085947e+000	9.265989e-001	1.049293e+000	1.040165e+000	9.705639e-001	9.534748e-001	9.185570e-001	1.212999e+000	9.504194e-001	9.724767e-001	9.629704e-001	8.119735e-001	1.066537e+000	9.960236e-001	1.236541e+000	1.105227e+000	1.073387e+000	1.158163e+000	1.076486e+000	1.302195e+000	1.230586e+000	1.105719e+000	9.676394e-001	6.295076e-001	6.343327e-001	1.102424e+000	1.164499e+000	1.123205e+000	1.274763e+000	1.169889e+000	1.047882e+000	1.195895e+000	1.176837e+000	6.111978e-001	1.080813e+000	1.024942e+000	1.015928e+000	6.214116e-001	6.893848e-001	7.036364e-001	9.685651e-001	1.151819e+000	1.174396e+000	1.099617e+000	9.922581e-001	1.006003e+000	9.821317e-001	1.020347e+000	1.031685e+000	1.067261e+000	1.112417e+000	9.558384e-001	1.055737e+000	1.061256e+000	9.247166e-001	1.092375e+000	9.671028e-001	9.676329e-001	9.421325e-001	9.337455e-001	9.683359e-001	1.033008e+000	1.017650e+000	1.003943e+000	9.952449e-001	9.333506e-001	9.401955e-001	9.460663e-001	9.144859e-001	9.136963e-001	1.056142e+000	1.045521e+000	6.409609e-001	6.496940e-001	9.529574e-001	7.193220e-001	8.344439e-001	1.002578e+000	9.945606e-001	9.963259e-001	9.990288e-001	1.001056e+000	1.002270e+000	1.002029e+000	1.000988e+000	9.989284e-001	9.937552e-001	9.983701e-001	1.019771e+000	9.180909e-001	6.548149e-001	7.364174e-001	7.544948e-001	7.724697e-001	7.809890e-001	7.959137e-001	9.742403e-001	9.941013e-001	9.702994e-001	9.750438e-001	9.835567e-001	9.602683e-001	9.630220e-001	1.014159e+000	1.036734e+000	1.059690e+000	1.081962e+000	8.513164e-001	8.663094e-001	8.815268e-001	8.987184e-001	9.191027e-001	9.327846e-001	6.592346e-001	6.690002e-001	1.006837e+000	1.002074e+000	9.699869e-001	9.703793e-001	9.696526e-001	9.160092e-001	9.205836e-001	1.108738e+000	1.157785e+000	1.152178e+000	1.129983e+000	1.017756e+000	1.095755e+000	1.159350e+000	1.126573e+000	1.166771e+000	1.115918e+000	1.138268e+000	1.118130e+000	1.143335e+000	1.216435e+000	1.226678e+000	1.053128e+000	9.707591e-001	6.853225e-001	1.117767e+000	1.028521e+000	1.082360e+000	9.544170e-001	1.123356e+000	1.149996e+000	9.503350e-001	1.053597e+000	9.714623e-001	9.676476e-001	1.082102e+000	1.088038e+000	1.066740e+000	1.053432e+000	1.157913e+000	1.079406e+000	1.087493e+000	1.035663e+000	7.111832e-001	6.242478e-001	9.710214e-001	9.892254e-001	1.143178e+000	1.148163e+000	1.279398e+000	1.076212e+000	1.044120e+000	1.170838e+000	1.094153e+000	1.199313e+000	1.132620e+000	9.650441e-001	1.212420e+000	9.820945e-001	9.704704e-001	1.070823e+000	1.248615e+000	1.070498e+000	1.100285e+000	9.706791e-001	1.251928e+000	1.169981e+000	1.001648e+000	1.197778e+000	1.182775e+000	6.