# vtk DataFile Version 3.0
vtk output
ASCII
DATASET UNSTRUCTURED_GRID
POINTS 5233 float
9.997500e-001	-3.632897e-005	0.0	9.990000e-001	-1.452538e-004	0.0	9.977600e-001	-3.251112e-004	0.0	9.960200e-001	-5.769984e-004	0.0	9.937800e-001	-9.004365e-004	0.0	9.910500e-001	-1.293364e-003	0.0	9.878400e-001	-1.753610e-003	0.0	9.841300e-001	-2.283177e-003	0.0	9.799500e-001	-2.876826e-003	0.0	9.752800e-001	-3.536324e-003	0.0	9.701500e-001	-4.256269e-003	0.0	9.645400e-001	-5.038225e-003	0.0	9.584700e-001	-5.878077e-003	0.0	9.519400e-001	-6.774429e-003	0.0	9.449600e-001	-7.724467e-003	0.0	9.375400e-001	-8.725349e-003	0.0	9.296900e-001	-9.774221e-003	0.0	9.214000e-001	-1.087086e-002	0.0	9.127000e-001	-1.200973e-002	0.0	9.035800e-001	-1.319056e-002	0.0	8.940600e-001	-1.440916e-002	0.0	8.841500e-001	-1.566269e-002	0.0	8.738500e-001	-1.694956e-002	0.0	8.631800e-001	-1.826569e-002	0.0	8.521600e-001	-1.960709e-002	0.0	8.407700e-001	-2.097463e-002	0.0	8.290500e-001	-2.236196e-002	0.0	8.170100e-001	-2.376642e-002	0.0	8.046400e-001	-2.518764e-002	0.0	7.919700e-001	-2.662063e-002	0.0	7.790100e-001	-2.806277e-002	0.0	7.657800e-001	-2.951034e-002	0.0	7.522800e-001	-3.096181e-002	0.0	7.385200e-001	-3.241453e-002	0.0	7.245300e-001	-3.386377e-002	0.0	7.103200e-001	-3.530689e-002	0.0	6.958900e-001	-3.674225e-002	0.0	6.812700e-001	-3.816515e-002	0.0	6.664700e-001	-3.957289e-002	0.0	6.515000e-001	-4.096270e-002	0.0	6.363800e-001	-4.233084e-002	0.0	6.211300e-001	-4.367359e-002	0.0	6.057600e-001	-4.498807e-002	0.0	5.902800e-001	-4.627133e-002	0.0	5.747100e-001	-4.751951e-002	0.0	5.590600e-001	-4.872956e-002	0.0	5.433600e-001	-4.989684e-002	0.0	5.276100e-001	-5.101898e-002	0.0	5.118400e-001	-5.209138e-002	0.0	4.960500e-001	-5.311154e-002	0.0	4.802700e-001	-5.407492e-002	0.0	4.645100e-001	-5.497836e-002	0.0	4.487800e-001	-5.581860e-002	0.0	4.331100e-001	-5.659142e-002	0.0	4.175000e-001	-5.729417e-002	0.0	4.019700e-001	-5.792324e-002	0.0	3.865400e-001	-5.847521e-002	0.0	3.712300e-001	-5.894684e-002	0.0	3.560400e-001	-5.933562e-002	0.0	3.409900e-001	-5.963848e-002	0.0	3.261100e-001	-5.985254e-002	0.0	3.114000e-001	-5.997565e-002	0.0	2.968700e-001	-6.000550e-002	0.0	2.825500e-001	-5.994005e-002	0.0	2.684500e-001	-5.977766e-002	0.0	2.545700e-001	-5.951658e-002	0.0	2.409400e-001	-5.915586e-002	0.0	2.275700e-001	-5.869457e-002	0.0	2.144700e-001	-5.813197e-002	0.0	2.016600e-001	-5.746811e-002	0.0	1.891400e-001	-5.670228e-002	0.0	1.769300e-001	-5.583514e-002	0.0	1.650400e-001	-5.486709e-002	0.0	1.534900e-001	-5.379978e-002	0.0	1.422900e-001	-5.263443e-002	0.0	1.314400e-001	-5.137134e-002	0.0	1.209500e-001	-5.001187e-002	0.0	1.108500e-001	-4.856067e-002	0.0	1.011300e-001	-4.701715e-002	0.0	9.181000e-002	-4.538527e-002	0.0	8.290000e-002	-4.366791e-002	0.0	7.440000e-002	-4.186608e-002	0.0	6.633000e-002	-3.998514e-002	0.0	5.869000e-002	-3.802636e-002	0.0	5.149000e-002	-3.599338e-002	0.0	4.474000e-002	-3.389028e-002	0.0	3.844000e-002	-3.171811e-002	0.0	3.260000e-002	-2.948109e-002	0.0	2.723000e-002	-2.718420e-002	0.0	2.232000e-002	-2.482329e-002	0.0	1.790000e-002	-2.241365e-002	0.0	1.395000e-002	-1.994492e-002	0.0	1.049000e-002	-1.742916e-002	0.0	7.520000e-003	-1.486756e-002	0.0	5.040000e-003	-1.226032e-002	0.0	3.050000e-003	-9.605565e-003	0.0	1.560000e-003	-6.917518e-003	0.0	5.600000e-004	-4.173160e-003	0.0	6.000000e-005	-1.375330e-003	0.0	0.000000e+000	0.000000e+000	0.0	6.000000e-005	1.375330e-003	0.0	5.600000e-004	4.173160e-003	0.0	1.560000e-003	6.917518e-003	0.0	3.050000e-003	9.605565e-003	0.0	5.040000e-003	1.226032e-002	0.0	7.520000e-003	1.486756e-002	0.0	1.049000e-002	1.742916e-002	0.0	1.395000e-002	1.994492e-002	0.0	1.790000e-002	2.241365e-002	0.0	2.232000e-002	2.482329e-002	0.0	2.723000e-002	2.718420e-002	0.0	3.260000e-002	2.948109e-002	0.0	3.844000e-002	3.171811e-002	0.0	4.474000e-002	3.389028e-002	0.0	5.149000e-002	3.599338e-002	0.0	5.869000e-002	3.802636e-002	0.0	6.633000e-002	3.998514e-002	0.0	7.440000e-002	4.186608e-002	0.0	8.290000e-002	4.366791e-002	0.0	9.181000e-002	4.538527e-002	0.0	1.011300e-001	4.701715e-002	0.0	1.108500e-001	4.856067e-002	0.0	1.209500e-001	5.001187e-002	0.0	1.314400e-001	5.137134e-002	0.0	1.422900e-001	5.263443e-002	0.0	1.534900e-001	5.379978e-002	0.0	1.650400e-001	5.486709e-002	0.0	1.769300e-001	5.583514e-002	0.0	1.891400e-001	5.670228e-002	0.0	2.016600e-001	5.746811e-002	0.0	2.144700e-001	5.813197e-002	0.0	2.275700e-001	5.869457e-002	0.0	2.409400e-001	5.915586e-002	0.0	2.545700e-001	5.951658e-002	0.0	2.684500e-001	5.977766e-002	0.0	2.825500e-001	5.994005e-002	0.0	2.968700e-001	6.000550e-002	0.0	3.114000e-001	5.997565e-002	0.0	3.261100e-001	5.985254e-002	0.0	3.409900e-001	5.963848e-002	0.0	3.560400e-001	5.933562e-002	0.0	3.712300e-001	5.894684e-002	0.0	3.865400e-001	5.847521e-002	0.0	4.019700e-001	5.792324e-002	0.0	4.175000e-001	5.729417e-002	0.0	4.331100e-001	5.659142e-002	0.0	4.487800e-001	5.581860e-002	0.0	4.645100e-001	5.497836e-002	0.0	4.802700e-001	5.407492e-002	0.0	4.960500e-001	5.311154e-002	0.0	5.118400e-001	5.209138e-002	0.0	5.276100e-001	5.101898e-002	0.0	5.433600e-001	4.989684e-002	0.0	5.590600e-001	4.872956e-002	0.0	5.747100e-001	4.751951e-002	0.0	5.902800e-001	4.627133e-002	0.0	6.057600e-001	4.498807e-002	0.0	6.211300e-001	4.367359e-002	0.0	6.363800e-001	4.233084e-002	0.0	6.515000e-001	4.096270e-002	0.0	6.664700e-001	3.957289e-002	0.0	6.812700e-001	3.816515e-002	0.0	6.958900e-001	3.674225e-002	0.0	7.103200e-001	3.530689e-002	0.0	7.245300e-001	3.386377e-002	0.0	7.385200e-001	3.241453e-002	0.0	7.522800e-001	3.096181e-002	0.0	7.657800e-001	2.951034e-002	0.0	7.790100e-001	2.806277e-002	0.0	7.919700e-001	2.662063e-002	0.0	8.046400e-001	2.518764e-002	0.0	8.170100e-001	2.376642e-002	0.0	8.290500e-001	2.236196e-002	0.0	8.407700e-001	2.097463e-002	0.0	8.521600e-001	1.960709e-002	0.0	8.631800e-001	1.826569e-002	0.0	8.738500e-001	1.694956e-002	0.0	8.841500e-001	1.566269e-002	0.0	8.940600e-001	1.440916e-002	0.0	9.035800e-001	1.319056e-002	0.0	9.127000e-001	1.200973e-002	0.0	9.214000e-001	1.087086e-002	0.0	9.296900e-001	9.774221e-003	0.0	9.375400e-001	8.725349e-003	0.0	9.449600e-001	7.724467e-003	0.0	9.519400e-001	6.774429e-003	0.0	9.584700e-001	5.878077e-003	0.0	9.645400e-001	5.038225e-003	0.0	9.701500e-001	4.256269e-003	0.0	9.752800e-001	3.536324e-003	0.0	9.799500e-001	2.876826e-003	0.0	9.841300e-001	2.283177e-003	0.0	9.878400e-001	1.753610e-003	0.0	9.910500e-001	1.293364e-003	0.0	9.937800e-001	9.004365e-004	0.0	9.960200e-001	5.769984e-004	0.0	9.977600e-001	3.251112e-004	0.0	9.990000e-001	1.452538e-004	0.0	9.997500e-001	3.632897e-005	0.0	1.000000e+000	0.000000e+000	0.0	1.984229e+001	2.506660e+000	0.0	1.937166e+001	4.973800e+000	0.0	1.859553e+001	7.362490e+000	0.0	1.752613e+001	9.635070e+000	0.0	1.618034e+001	1.175571e+001	0.0	1.457937e+001	1.369094e+001	0.0	1.274848e+001	1.541027e+001	0.0	1.071654e+001	1.688656e+001	0.0	8.515590e+000	1.809654e+001	0.0	6.180340e+000	1.902113e+001	0.0	3.747630e+000	1.964575e+001	0.0	1.255810e+000	1.996053e+001	0.0	-1.255810e+000	1.996053e+001	0.0	-3.747630e+000	1.964574e+001	0.0	-6.180340e+000	1.902113e+001	0.0	-8.515590e+000	1.809654e+001	0.0	-1.071654e+001	1.688656e+001	0.0	-1.274848e+001	1.541026e+001	0.0	-1.457937e+001	1.369094e+001	0.0	-1.618034e+001	1.175570e+001	0.0	-1.752613e+001	9.635070e+000	0.0	-1.859553e+001	7.362490e+000	0.0	-1.937166e+001	4.973800e+000	0.0	-1.984229e+001	2.506660e+000	0.0	-2.000000e+001	0.000000e+000	0.0	-1.984229e+001	-2.506670e+000	0.0	-1.937166e+001	-4.973800e+000	0.0	-1.859553e+001	-7.362490e+000	0.0	-1.752613e+001	-9.635080e+000	0.0	-1.618034e+001	-1.175571e+001	0.0	-1.457937e+001	-1.369094e+001	0.0	-1.274848e+001	-1.541027e+001	0.0	-1.071653e+001	-1.688656e+001	0.0	-8.515580e+000	-1.809654e+001	0.0	-6.180340e+000	-1.902113e+001	0.0	-3.747620e+000	-1.964575e+001	0.0	-1.255810e+000	-1.996053e+001	0.0	1.255810e+000	-1.996053e+001	0.0	3.747630e+000	-1.964574e+001	0.0	6.180340e+000	-1.902113e+001	0.0	8.515590e+000	-1.809654e+001	0.0	1.071654e+001	-1.688656e+001	0.0	1.274848e+001	-1.541026e+001	0.0	1.457937e+001	-1.369094e+001	0.0	1.618034e+001	-1.175570e+001	0.0	1.752614e+001	-9.635070e+000	0.0	1.859553e+001	-7.362490e+000	0.0	1.937166e+001	-4.973790e+000	0.0	1.984229e+001	-2.506660e+000	0.0	2.000000e+001	0.000000e+000	0.0	6.071847e-002	-4.599300e-002	0.0	6.602584e-001	-5.397924e-002	0.0	4.259462e-001	7.123173e-002	0.0	6.898893e-001	5.084802e-002	0.0	3.793152e-001	-7.273116e-002	0.0	9.994604e-001	-7.202256e-004	0.0	9.985440e-001	-1.312423e-003	0.0	7.737237e-001	-4.090969e-002	0.0	6.898893e-001	-5.084802e-002	0.0	-1.456769e-003	6.464601e-003	0.0	7.467285e-001	-4.428984e-002	0.0	5.836398e-001	6.115854e-002	0.0	9.927702e-001	-3.577733e-003	0.0	9.898650e-001	-4.450375e-003	0.0	5.991925e-001	5.980916e-002	0.0	7.187526e-001	-4.760665e-002	0.0	-1.597618e-003	7.671995e-004	0.0	9.864674e-001	-5.394793e-003	0.0	9.825871e-001	-6.398977e-003	0.0	-1.456774e-003	-6.464600e-003	0.0	6.451948e-001	-5.549610e-002	0.0	8.243215e-001	-3.409983e-002	0.0	7.996157e-001	-3.751255e-002	0.0	3.487901e-001	7.326090e-002	0.0	8.477112e-001	-3.071909e-002	0.0	2.474256e-001	7.182160e-002	0.0	8.697233e-001	-2.738134e-002	0.0	9.916188e-003	2.185203e-002	0.0	8.902508e-001	-2.411717e-002	0.0	7.700293e-002	-5.054436e-002	0.0	9.092206e-001	-2.095307e-002	0.0	-1.944578e-003	-3.190372e-003	0.0	9.421664e-001	-1.502079e-002	0.0	9.265514e-001	-1.791177e-002	0.0	1.789678e-002	-2.766280e-002	0.0	4.259462e-001	-7.123173e-002	0.0	8.588986e-001	-2.904064e-002	0.0	9.560213e-001	-1.230722e-002	0.0	9.782180e-001	-7.479396e-003	0.0	9.680592e-001	-9.783205e-003	0.0	1.582863e-001	-6.490557e-002	0.0	8.999374e-001	-2.252139e-002	0.0	7.603588e-001	-4.260503e-002	0.0	9.971186e-001	-2.046344e-003	0.0	5.991925e-001	-5.980916e-002	0.0	4.416505e-001	-7.055456e-002	0.0	5.365104e-001	-6.487405e-002	0.0	4.732224e-001	-6.895566e-002	0.0	5.048788e-001	-6.705339e-002	0.0	4.890394e-001	-6.804024e-002	0.0	1.249513e-001	-6.028257e-002	0.0	2.780447e-002	-3.325805e-002	0.0	3.947663e-001	-7.232395e-002	0.0	4.619013e-002	-4.112
[...]
POINT_DATA 5233
SCALARS Density float 1
LOOKUP_TABLE default
1.18676796004459e+00	1.16278313524816e+00	1.14901405640209e+00	1.13797663053762e+00	1.12871439729051e+00	1.12092284910281e+00	1.11414658818185e+00	1.10801496386159e+00	1.10131540210445e+00	1.09275299419534e+00	1.08135284289549e+00	1.06756393711166e+00	1.05422934079057e+00	1.04456258704076e+00	1.03915293275060e+00	1.03621689874003e+00	1.03349608346083e+00	1.02950394651717e+00	1.02389867399681e+00	1.01707731828190e+00	1.00962348251532e+00	1.00198012245898e+00	9.94371847896229e-01	9.86916794447438e-01	9.79645849431495e-01	9.72611672864119e-01	9.65823380325864e-01	9.59277265842679e-01	9.52961731679447e-01	9.46920500928160e-01	9.41170923779543e-01	9.35565668101519e-01	9.29638107678078e-01	9.22947368844260e-01	9.15102498954644e-01	9.07506491868164e-01	9.00351588323884e-01	8.93771999384343e-01	8.87070569341520e-01	8.75280625863463e-01	8.63850455490095e-01	8.55493044081444e-01	8.48824015357058e-01	8.44284632893785e-01	8.40692428179155e-01	8.38599508179454e-01	8.37817381150733e-01	8.36924957042711e-01	8.40590310706693e-01	8.49060557588134e-01	8.55202553537791e-01	8.57380474350372e-01	8.58668105605579e-01	8.63603912251147e-01	8.72831015456700e-01	8.83929036182062e-01	8.96764880960183e-01	9.08215755157700e-01	9.13986903364494e-01	9.13731404064978e-01	9.12127169188811e-01	9.10728879893182e-01	9.08750670511009e-01	9.06134247571462e-01	9.02627904626590e-01	8.97885053883703e-01	8.92698627452666e-01	8.87552432103682e-01	8.83227214364732e-01	8.80291292491800e-01	8.78228279739455e-01	8.76423692399309e-01	8.74509876705900e-01	8.72348511033751e-01	8.70292637976325e-01	8.68642879495217e-01	8.67800585457922e-01	8.67983871265633e-01	8.69088867878773e-01	8.71018184422915e-01	8.73842992690414e-01	8.77663912862972e-01	8.82686321633893e-01	8.89068083862579e-01	8.97064954525485e-01	9.07032962966062e-01	9.19265849718080e-01	9.34193877428448e-01	9.52416665842375e-01	9.74472337598132e-01	1.00127188469000e+00	1.03370908092216e+00	1.07230451680213e+00	1.11767249672291e+00	1.16943723126899e+00	1.22538696391308e+00	1.27895773962898e+00	1.33131677399961e+00	1.35067279248892e+00	1.34830711243281e+00	1.34666041749516e+00	1.32151309322693e+00	1.26510650796093e+00	1.21333339411925e+00	1.16234847607483e+00	1.11583417108669e+00	1.07458011535226e+00	1.03822400586344e+00	1.00595993012096e+00	9.77389726733163e-01	9.51896818963360e-01	9.28829202263190e-01	9.07900686850285e-01	8.88697815599356e-01	8.70955473738058e-01	8.54485953606769e-01	8.38976550331652e-01	8.24173230376339e-01	8.10030628619274e-01	7.96505612493406e-01	7.83670227866816e-01	7.71525414387584e-01	7.59896318719167e-01	7.48511648955980e-01	7.37288377517572e-01	7.26411986397209e-01	7.16188764259490e-01	7.06501383873857e-01	6.97093999272232e-01	6.87781918574637e-01	6.78736643576595e-01	6.70148066498804e-01	6.62167838721933e-01	6.54726542927480e-01	6.47766498741490e-01	6.41166589960810e-01	6.34858621335725e-01	6.28847805236291e-01	6.23041284431433e-01	6.17514084197673e-01	6.12371273848756e-01	6.07806941260920e-01	6.03493553826648e-01	5.99017709869810e-01	5.94739341105863e-01	5.91411415281145e-01	5.90175240507530e-01	5.91721243307806e-01	5.99100397272615e-01	6.15189306837055e-01	6.39415546452243e-01	6.75720983947937e-01	7.25326184317934e-01	8.00633970816397e-01	8.84941674115197e-01	9.46746285073238e-01	9.88953843725032e-01	1.01972675080952e+00	1.03023740123515e+00	1.02365182795595e+00	1.01562675745949e+00	1.00534163091803e+00	9.93279596524730e-01	9.85157813689679e-01	9.87116349805290e-01	9.97574636251436e-01	1.00452829496183e+00	1.00631654927878e+00	1.00698877674912e+00	1.00623376449996e+00	1.00561907870622e+00	1.00671832244367e+00	1.00889362663652e+00	1.00987910084766e+00	1.01054072250004e+00	1.01143515578179e+00	1.01259930273099e+00	1.01402656709461e+00	1.01582129921281e+00	1.01806574723683e+00	1.02071062554259e+00	1.02353390556291e+00	1.02624821335503e+00	1.02883273610865e+00	1.03187624364126e+00	1.03637107660267e+00	1.04318162375692e+00	1.05201701247812e+00	1.06095692432186e+00	1.06816536684242e+00	1.07385046530628e+00	1.07928850361369e+00	1.08579571741651e+00	1.09419397959949e+00	1.10414547916595e+00	1.11558885349350e+00	1.12812371227420e+00	1.14317005720263e+00	1.15916783656668e+00	1.15708246893013e+00	9.98844714019913e-01	9.99726133467438e-01	9.99845436146558e-01	9.99750875664898e-01	9.99702138501844e-01	9.99636472305546e-01	9.99556098858539e-01	9.99453248398698e-01	9.99339080278325e-01	9.99264331617423e-01	9.99231374232925e-01	9.99295119130180e-01	9.99432254286792e-01	9.99672428343832e-01	9.99869515804390e-01	1.00002437722017e+00	1.00010869456143e+00	1.00015893462152e+00	1.00018668083212e+00	1.00019839689423e+00	1.00020304994805e+00	1.00020380860626e+00	1.00020411976113e+00	1.00020815897748e+00	1.00021167101798e+00	1.00021880999498e+00	1.00023279894520e+00	1.00025074559588e+00	1.00027670658381e+00	1.00031465556159e+00	1.00035691618216e+00	1.00042394864079e+00	1.00048681177119e+00	1.00058957357265e+00	1.00067809937002e+00	1.00077748180373e+00	1.00087085680935e+00	1.00088999219572e+00	1.00088036390002e+00	1.00080057083739e+00	1.00071910816081e+00	1.00060937881990e+00	1.00050704727938e+00	1.00040665036970e+00	1.00031952136203e+00	1.00020408119807e+00	1.00010653605840e+00	1.00015714154234e+00	9.99352961254196e-01	9.98254941191671e-01	9.00207363644957e-01	8.86551785622236e-01	5.97150496635295e-01	9.97850784919552e-01	9.05797750640464e-01	1.16548522659501e+00	1.15443447067426e+00	9.41324409305998e-01	9.00343433924011e-01	1.30432443502632e+00	9.29825207813620e-01	9.23577163621782e-01	1.12367386780726e+00	1.11624514246509e+00	9.70983310916652e-01	9.14503957107706e-01	1.34539409997373e+00	1.10956842575466e+00	1.10302060882220e+00	1.31281024091061e+00	8.72270243851396e-01	9.65002749924858e-01	9.52615775312784e-01	6.21524034623053e-01	9.78240736025143e-01	6.67575498698879e-01	9.92318359205174e-01	1.08793214396967e+00	1.00688869162183e+00	8.87000725639229e-01	1.02098857798482e+00	1.34177183986789e+00	1.03935910189467e+00	1.03202567520781e+00	1.02021032338682e+00	8.70780082694989e-01	9.85193305942672e-01	1.05182334714142e+00	1.09562252623985e+00	1.07512993253964e+00	8.77790199985570e-01	1.01412456656066e+00	9.35775419453903e-01	1.14198800011973e+00	8.50236428250444e-01	8.62911059193917e-01	8.41090576581120e-01	8.60269869943486e-01	8.48565827056642e-01	8.56550564001143e-01	8.74254751299024e-01	9.69537828603736e-01	8.93096335297216e-01	9.20348461200095e-01	8.80661495308732e-01	9.13634615342529e-01	9.16738559755771e-01	9.50070641811286e-01	9.09628528277679e-01	1.03585674357701e+00	8.76126594935664e-01	8.82327908869758e-01	8.82407719426302e-01	8.76323936403951e-01	8.42991211183235e-01	8.79439702045577e-01	8.55564160524486e-01	9.99577649986643e-01	9.92689829950323e-01	1.13222702454764e+00	1.13221420264593e+00	1.01983941107647e+00	1.02707280605148e+00	1.04413900229797e+00	1.08646031364776e+00	1.26275876435216e+00	9.71518516543886e-01	8.97484966230106e-01	8.42154093415485e-01	9.22502919109701e-01	9.46837496198099e-01	8.74740770900699e-01	8.87593885166070e-01	8.46352448647486e-01	8.94778241452573e-01	9.09274894781238e-01	1.17859628302884e+00	1.05248102874551e+00	9.15156966479184e-01	8.80860337360037e-01	1.19974479999571e+00	8.92377735385256e-01	8.78893720686862e-01	9.11959141556618e-01	9.02501437870053e-01	8.60827963007571e-01	9.07368158616711e-01	1.33723772702338e+00	1.27363046183685e+00	6.98437249417991e-01	1.34632586039036e+00	9.64723744021624e-01	8.81228373937619e-01	9.19349929411068e-01	7.78910279181941e-01	6.01691409546456e-01	1.12133581329087e+00	6.56597966586379e-01	5.96239342840136e-01	1.06527185071321e+00	1.04948431465834e+00	1.01678596813765e+00	6.08704924723135e-01	5.94175295473651e-01	6.11569172496947e-01	1.02691431617492e+00	1.02138060296589e+00	8.32806794630423e-01	1.07163545470532e+00	1.04213303079678e+00	1.03267739900303e+00	8.04404258013784e-01	8.64175483689794e-01	6.46076026340281e-01	6.60021119930384e-01	7.22476842564299e-01	6.33277384331627e-01	5.94001717022005e-01	6.06592156737509e-01	7.43730656739858e-01	7.66922549697483e-01	1.03120675021889e+00	7.02872957793129e-01	6.84257757697603e-01	1.01929353752429e+00	8.47919441785292e-01	1.00320364081418e+00	9.82474341868013e-01	1.00611860693681e+00	1.00716819497598e+00	1.01142687758247e+00	1.00903686834114e+00	1.01890036772790e+00	1.01358471750693e+00	1.03658122549965e+00	1.02411477934555e+00	1.05770709858269e+00	1.01236267409494e+00	1.01503802941918e+00	1.00638332066490e+00	1.01069256555083e+00	1.00599804534505e+00	1.00730363795013e+00	9.87592401972516e-01	9.92308233647556e-01	1.02741585166481e+00	1.01117548102264e+00	7.57684614358433e-01	1.00786894747238e+00	6.93402990977009e-01	6.75670816486851e-01	7.32830780847807e-01	7.12589645045722e-01	8.99511327561789e-01	7.55202083715846e-01	1.05205869974157e+00	9.41007517002168e-01	8.84338171508667e-01	1.17073875705872e+00	1.06274180406708e+00	9.58687237456574e-01	9.14978668934860e-01	8.40493001105668e-01	1.21710056598075e+00	9.90841564770384e-01	1.12746659599978e+00	8.18244281384971e-01	8.48077383682897e-01	6.52866827935486e-01	7.91326506763732e-01	1.07748363599799e+00	1.08373746545098e+00	6.39558512210664e-01	1.09121028487324e+00	1.10000676768066e+00	6.27288955573241e-01	6.16271540562867e-01	1.02968279199780e+00	1.17051993923379e+00	1.13444543972558e+00	1.14722098465395e+00	8.63347124689612e-01	9.33812740821521e-01	1.11010726919905e+00	6.26940907641014e-01	1.22742613671842e+00	1.08993870023216e+00	8.92857413411470e-01	8.74837895675892e-01	9.06715438113698e-01	8.57836078115582e-01	1.28213741471271e+00	1.31605892249621e+00	9.10315385771313e-01	9.07689376869873e-01	1.02445538284482e+00	1.13363463265967e+00	8.91525009920870e-01	9.01439556649384e-01	9.47079209799419e-01	1.11100379800221e+00	9.16527007409560e-01	9.83981881265725e-01	9.70895408065712e-01	8.91704760060087e-01	1.28979028486060e+00	8.89081752851496e-01	1.06249608365518e+00	1.05954371298403e+00	8.82467631593567e-01	9.14777567908920e-01	8.83873672917949e-01	8.65366639413922e-01	8.97028300154164e-01	9.01931104936393e-01	1.01158552315930e+00	9.52631485711580e-01	1.12797997677319e+00	1.02825983001651e+00	1.01477179624935e+00	1.01222151351764e+00	8.00363222131533e-01	1.00361685756509e+00	7.40903272619445e-01	1.01599872344980e+00	1.08779492146961e+00	6.32702776540693e-01	6.43525047962541e-01	1.04186211676824e+00	1.01773607363539e+00	1.09530893229115e+00	1.04802058199745e+00	1.07482830127825e+00	6.82947229206294e-01	6.39060191744614e-01	6.91603707446023e-01	8.13579159184795e-01	8.95804210345571e-01	8.86858321479177e-01	1.09198737374775e+00	7.63120774261133e-01	9.10091390970875e-01	1.06216267940899e+00	1.10392654203065e+00	1.01975904561145e+00	8.83472912657306e-01	1.18650822035045e+00	1.12406434276046e+00	1.11340549719858e+00	1.16621948762056e+00	1.24617542948581e+00	1.17351773730399e+00	1.33780395909267e+00	1.33982604750411e+00	1.03234640864977e+00	1.19908430231077e+00	9.11727293083590e-01	1.14388007841873e+00	1.12563510048085e+00	6.05406215722171e-01	8.46273615119054e-01	1.10423395309214e+00	9.97683600425170e-01	9.50130778087638e-01	1.11801236226662e+00	1.32121062387407e+00	8.69760645686328e-01	6.10748990240933e-01	9.77335936881220e-01	6.59541245431427e-01	9.90768914334395e-01	1.00464795948774e+00	9.03633802359154e-01	1.01826947235343e+00	1.02989982782335e+00	1.04384235854857e+00	9.83505449226295e-01	1.05058024491585e+00	1.06993154043012e+00	1.09718944981660e+00	8.81544590209380e-01	9.36112688243527e-01	9.41678232414424e-01	1.13421402753519e+00	8.64940258586129e-01	8.62764793090729e-01	8.56525621127493e-01	1.00625379795149e+00	8.89283982938747e-01	8.79081867624683e-01	9.18361591927331e-01	9.47361501743135e-01	1.03456134546560e+00	1.03888250948906e+00	8.81701196628402e-01	8.87489028927145e-01	8.46995044371734e-01	8.57224264215888e-01	1.08018594073220e+00	1.08932058060492e+00	9.22141643994618e-01	9.29836712497921e-01	8.84388918992698e-01	8.82387604987829e-01	8.48952894991599e-01	8.52839194469395e-01	9.33406605615909e-01	9.21597907391098e-01	1.09621527085000e+00	9.19053805970717e-01	9.12904503977710e-01	8.84538169999388e-01	8.85509086298531e-01	8.92891692951679e-01	8.97627595926109e-01	9.12909986806726e-01	9.14998673606308e-01	9.02436024598361e-01	1.33590202916207e+00	1.21523747453658e+00	9.29892562945343e-01	1.08101487951766e+00	6.77996198773891e-01	6.21153518988138e-01	6.05470027910280e-01	5.99316781589657e-01	1.06871245222222e+00	1.05508963389772e+00	1.02739705096063e+00	5.98951030664829e-01	6.01175210953221e-01	6.16562382697642e-01	1.02466705961742e+00	1.03702630822047e+00	8.74185499042037e-01	8.91585705488313e-01	6.74781369086306e-01	6.66938800369499e-01	7.51740924629615e-01	7.75256406480972e-01	7.87672056572898e-01	1.00680097627832e+00	9.99018585887456e-01	9.87335778634205e-01	1.00780368913610e+00	1.01130957799473e+00	1.02208697592112e+00	1.01450250606394e+00	1.01320514607225e+00	1.00854404858447e+00	1.00665783540099e+00	1.00640602908968e+00	1.00531505125356e+00	9.82708090176137e-01	9.91349682685576e-01	1.02143860758520e+00	1.03054118473301e+00	8.03351109696398e-01	7.25877771780500e-01	1.02133607745341e+00	9.90594097807649e-01	7.00597472562031e-01	7.10190558452649e-01	7.20148199503395e-01	7.30484504322894e-01	1.05884614542499e+00	9.51392315751939e-01	9.74932465369854e-01	9.58481793999359e-01	9.64602581761899e-01	8.47664423884383e-01	8.44933878116076e-01	1.20658666064332e+00	1.00049798269861e+00	8.27530188478404e-01	8.42276934971155e-01	6.45573772187608e-01	6.52405388615372e-01	6.21712711813871e-01	6.26956533379128e-01	1.03331369345108e+00	1.03022798236810e+00	8.63731525415312e-01	8.71768274696300e-01	9.63907871224989e-01	1.25519952594236e+00	9.06900666695887e-01	1.29808602549237e+00	8.99042433498263e-01	9.13905246954281e-01	9.53350650325955e-01	8.50996650791746e-01	1.02794542579803e+00	1.09124069842473e+00	1.08445810186646e+00	1.05329585104954e+00	1.19676982854339e+00	1.09908981540618e+00	1.13521236421805e+00	1.15076721544898e+00	1.13506285364110e+00	1.17801541032250e+00	1.04312728936030e+00	1.31577201588657e+00	9.01111545553370e-01	1.03309123427762e+00	1.11250241371267e+00	8.54132741873916e-01	1.15559734255289e+00	1.16940674934199e+00	9.15745517051796e-01	1.23930487281295e+00	9.22734136651501e-01	1.07076305553229e+00	9.96298557129351e-01	1.13453303592503e+00	9.19940310987046e-01	9.89715047653464e-01	9.09119358047875e-01	1.11986263971161e+00	1.10158554979852e+00	1.07208083389045e+00	6.62872992265132e-01	1.04186702439238e+00	1.01690476469788e+00	1.10688881936390e+00	6.34529601132317e-01	6.74612960964797e-01	6.45349860643689e-01	7.61298380959721e-01	8.84919122397411e-01	1.14442768012546e+00	1.26705496430176e+00	1.26009949639233e+00	1.06446311032921e+00	1.29313338488492e+00	1.06610876108191e+00	9.07083957617498e-01	1.33260555603405e+00	8.88524882794954e-01	8.69259777086458e-01	1.01840878083789e+00	1.12766029940682e+00	1.01283791180722e+00	1.00756581491889e+00	1.00828798818654e+00	1.07817351580444e+00	1.04717753786563e+00	1.02046986569019e+00	1.01849085633694e+00	6.52227620433898e-01	6.66780505414910e-01	6.99875095144369e-01	8.24025889426101e-01	8.96051673778186e-01	9.03574754058625e-01	8.91561072627662e-01	1.09526602045464e+00	7.72370501010494e-01	1.06603054383307e+00	1.11516874140665e+00	1.16175888494308e+00	1.23116233765669e+00	1.20494104075449e+00	1.31719492545301e+00	9.96147254637322e-01	1.17158050703752e+00	1.16164787660710e+00	1.07529184540385e+00	1.10576306879890e+00	9.27076821384274e-01	8.70934217321454e-01	6.15528849895105e-01	9.76849849340423e-01	9.83237751073572e-01	1.00292818078129e+00	1.00958302774913e+00	9.23112685212399e-01	9.14359178852738e-01	1.01604642595354e+00	1.02225436639178e+00	1.04946547366753e+00	1.05720626015812e+00	1.09901754515032e+00	9.42626550920653e-01	9.47994484866537e-01	1.12718391574974e+00	8.68528331062305e-01	8.64452416552405e-01	8.87642318411411e-01	8.78023488323486e-01	9.76875798789366e-01	1.03798696268751e+00	1.04318358341016e+00	8.88862582818054e-01	8.88466968333107e-01	8.51811867446249e-01	8.52966668494033e-01	1.08397150209881e+00	1.09180727503984e+00	9.30221614074316e-01	9.37018428389123e-01	8.96333228703126e-01	8.92533951508773e-01	8.90024351462088e-01	8.56250831943364e-01	8.60221624830660e-01	9.60462138943230e-01	9.46093787409541e-01	9.33634056466570e-01	9.21685637393942e-01	9.19620539229718e-01	9.10477901199848e-01	8.89056040970780e-01	8.89597561530329e-01	8.90322385781679e-01	8.94174730883718e-01	8.98128081924699e-01	9.16404536016721e-01	9.18161756357493e-01	9.02690847475891e-01	9.40807834455440e-01	6.17028412193734e-01	6.05634229419764e-01	1.05972237458880e+00	6.04657198320585e-01	6.06312694359822e-01	6.09836163266051e-01	6.21692370109623e-01	1.02786740226193e+00	9.02413477455242e-01	9.21087905191353e-01	6.82611033228903e-01	6.91168170514939e-01	7.84172870340124e-01	7.97254881973025e-01	8.10664854411651e-01	9.94115008632192e-01	1.02519871899713e+00	1.02271907422113e+00	1.01673047793392e+00	1.01520011157186e+00	1.01390327608556e+00	1.01121907854034e+00	1.00804218150521e+00	1.00696479882174e+00	1.00747175659329e+00	1.00573971156500e+00	1.00369788774242e+00	9.83192140194583e-01	9.85426952093435e-01	9.94961770274149e-01	1.02432066647364e+00	7.61341214911986e-01	7.03010714404778e-01	1.02858532755322e+00	1.00839108018992e+00	9.72485900427880e-01	7.09056814860197e-01	7.18449231956345e-01	7.28623751316199e-01	7.39250817531560e-01	7.50350240429313e-01	9.61716845464656e-01	9.84602693431845e-01	9.58922857253451e-01	9.64777328065006e-01	9.70705641380617e-01	8.56443379574943e-01	8.50422260319493e-01	1.00956825350955e+00	1.03599501543532e+00	8.37926002931792e-01	8.52757136409620e-01	8.68401657026485e-01	6.59399562999530e-01	6.28019516967105e-01	6.33492322284755e-01	6.39119840615786e-01	1.03750223168379e+00	1.03388763613455e+00	1.03074326720053e+00	8.65758582162123e-01	8.72903637848541e-01	8.82439504284285e-01	9.07140414462424e-01	9.11016710311148e-01	1.27517522176971e+00	9.10705527287961e-01	1.10824092808807e+00	1.07513578570761e+00	8.56464397274317e-01	1.29407293576862e+00	1.14253947517306e+00	1.03171435633806e+00	1.03702802332251e+00	1.00716952864259e+00	1.09392468370412e+00	6.32959143783301e-01	1.24690490235435e+00	1.09637544763686e+00	1.16259660852299e+00	1.05199579809164e+00	1.10096409528054e+00	1.24060950890892e+00	1.01741076418690e+00	1.21522618694740e+00	1.15356261668415e+00	1.17455474288459e+00	9.59421190864502e-01	8.95181980597446e-01	1.05187821133506e+00	8.96460584895859e-01	9.17270891208611e-01	8.74620164757495e-01	9.17638298629993e-01	1.08109317368230e+00	8.04881094472955e-01	1.04659281313978e+00	1.04182460819655e+00	1.00765655624048e+00	7.83774680670115e-01	6.92730536436417e-01	1.10709724577279e+00	9.12944507397709e-01	9.95754714429235e-01	1.12329196060872e+00	1.08731839099324e+00	1.12758697422866e+00	1.07923382685475e+00	1.07664991979189e+00	9.17037730774019e-01	1.19314235665772e+00	9.24195122658269e-01	9.30500261015529e-01	1.10413631823901e+00	1.11371751284417e+00	1.13307878331734e+00	1.01305566159075e+00	6.51841899486430e-01	6.68243010018181e-01	1.27011522137670e+00	1.12543406986802e+00	1.00900886109735e+00	1.02113887122405e+00	6.61084650262379e-01	6.76273333300510e-01	6.84068870339008e-01	9.05261341317984e-01	9.11986783628347e-01	1.06930098651496e+00	1.15497911697789e+00	1.18557344700741e+00	1.22250651854530e+00	1.29510566333367e+00	1.02849716277461e+00	1.07127992760929e+00	1.10052761192109e+00	9.02265373289325e-01	9.83214217808356e-01	9.89339818578717e-01	1.00206756153524e+00	1.00837034632434e+00	9.34278683604768e-01	9.25079089497999e-01	1.01453447354405e+00	1.02057422310670e+00	1.02633003455288e+00	1.05535912599810e+00	1.06317885354926e+00	9.48715045888923e-01	9.54498241757992e-01	1.12061860952296e+00	8.74010004348557e-01	8.71494473949544e-01	8.86687581448176e-01	8.78532104095684e-01	1.04243605928237e+00	1.04835794127191e+00	8.96839041994725e-01	8.95441140505345e-01	8.58478345083029e-01	1.08671346566985e+00	1.09380140055670e+00	9.37922237767037e-01	9.44434148993056e-01	9.05265186192729e-01	9.01126011203266e-01	8.98546086340893e-01	8.59825060