# vtk DataFile Version 3.0
vtk output
ASCII
DATASET UNSTRUCTURED_GRID
POINTS 5233 float
9.997500e-001	-3.632897e-005	0.0	9.990000e-001	-1.452538e-004	0.0	9.977600e-001	-3.251112e-004	0.0	9.960200e-001	-5.769984e-004	0.0	9.937800e-001	-9.004365e-004	0.0	9.910500e-001	-1.293364e-003	0.0	9.878400e-001	-1.753610e-003	0.0	9.841300e-001	-2.283177e-003	0.0	9.799500e-001	-2.876826e-003	0.0	9.752800e-001	-3.536324e-003	0.0	9.701500e-001	-4.256269e-003	0.0	9.645400e-001	-5.038225e-003	0.0	9.584700e-001	-5.878077e-003	0.0	9.519400e-001	-6.774429e-003	0.0	9.449600e-001	-7.724467e-003	0.0	9.375400e-001	-8.725349e-003	0.0	9.296900e-001	-9.774221e-003	0.0	9.214000e-001	-1.087086e-002	0.0	9.127000e-001	-1.200973e-002	0.0	9.035800e-001	-1.319056e-002	0.0	8.940600e-001	-1.440916e-002	0.0	8.841500e-001	-1.566269e-002	0.0	8.738500e-001	-1.694956e-002	0.0	8.631800e-001	-1.826569e-002	0.0	8.521600e-001	-1.960709e-002	0.0	8.407700e-001	-2.097463e-002	0.0	8.290500e-001	-2.236196e-002	0.0	8.170100e-001	-2.376642e-002	0.0	8.046400e-001	-2.518764e-002	0.0	7.919700e-001	-2.662063e-002	0.0	7.790100e-001	-2.806277e-002	0.0	7.657800e-001	-2.951034e-002	0.0	7.522800e-001	-3.096181e-002	0.0	7.385200e-001	-3.241453e-002	0.0	7.245300e-001	-3.386377e-002	0.0	7.103200e-001	-3.530689e-002	0.0	6.958900e-001	-3.674225e-002	0.0	6.812700e-001	-3.816515e-002	0.0	6.664700e-001	-3.957289e-002	0.0	6.515000e-001	-4.096270e-002	0.0	6.363800e-001	-4.233084e-002	0.0	6.211300e-001	-4.367359e-002	0.0	6.057600e-001	-4.498807e-002	0.0	5.902800e-001	-4.627133e-002	0.0	5.747100e-001	-4.751951e-002	0.0	5.590600e-001	-4.872956e-002	0.0	5.433600e-001	-4.989684e-002	0.0	5.276100e-001	-5.101898e-002	0.0	5.118400e-001	-5.209138e-002	0.0	4.960500e-001	-5.311154e-002	0.0	4.802700e-001	-5.407492e-002	0.0	4.645100e-001	-5.497836e-002	0.0	4.487800e-001	-5.581860e-002	0.0	4.331100e-001	-5.659142e-002	0.0	4.175000e-001	-5.729417e-002	0.0	4.019700e-001	-5.792324e-002	0.0	3.865400e-001	-5.847521e-002	0.0	3.712300e-001	-5.894684e-002	0.0	3.560400e-001	-5.933562e-002	0.0	3.409900e-001	-5.963848e-002	0.0	3.261100e-001	-5.985254e-002	0.0	3.114000e-001	-5.997565e-002	0.0	2.968700e-001	-6.000550e-002	0.0	2.825500e-001	-5.994005e-002	0.0	2.684500e-001	-5.977766e-002	0.0	2.545700e-001	-5.951658e-002	0.0	2.409400e-001	-5.915586e-002	0.0	2.275700e-001	-5.869457e-002	0.0	2.144700e-001	-5.813197e-002	0.0	2.016600e-001	-5.746811e-002	0.0	1.891400e-001	-5.670228e-002	0.0	1.769300e-001	-5.583514e-002	0.0	1.650400e-001	-5.486709e-002	0.0	1.534900e-001	-5.379978e-002	0.0	1.422900e-001	-5.263443e-002	0.0	1.314400e-001	-5.137134e-002	0.0	1.209500e-001	-5.001187e-002	0.0	1.108500e-001	-4.856067e-002	0.0	1.011300e-001	-4.701715e-002	0.0	9.181000e-002	-4.538527e-002	0.0	8.290000e-002	-4.366791e-002	0.0	7.440000e-002	-4.186608e-002	0.0	6.633000e-002	-3.998514e-002	0.0	5.869000e-002	-3.802636e-002	0.0	5.149000e-002	-3.599338e-002	0.0	4.474000e-002	-3.389028e-002	0.0	3.844000e-002	-3.171811e-002	0.0	3.260000e-002	-2.948109e-002	0.0	2.723000e-002	-2.718420e-002	0.0	2.232000e-002	-2.482329e-002	0.0	1.790000e-002	-2.241365e-002	0.0	1.395000e-002	-1.994492e-002	0.0	1.049000e-002	-1.742916e-002	0.0	7.520000e-003	-1.486756e-002	0.0	5.040000e-003	-1.226032e-002	0.0	3.050000e-003	-9.605565e-003	0.0	1.560000e-003	-6.917518e-003	0.0	5.600000e-004	-4.173160e-003	0.0	6.000000e-005	-1.375330e-003	0.0	0.000000e+000	0.000000e+000	0.0	6.000000e-005	1.375330e-003	0.0	5.600000e-004	4.173160e-003	0.0	1.560000e-003	6.917518e-003	0.0	3.050000e-003	9.605565e-003	0.0	5.040000e-003	1.226032e-002	0.0	7.520000e-003	1.486756e-002	0.0	1.049000e-002	1.742916e-002	0.0	1.395000e-002	1.994492e-002	0.0	1.790000e-002	2.241365e-002	0.0	2.232000e-002	2.482329e-002	0.0	2.723000e-002	2.718420e-002	0.0	3.260000e-002	2.948109e-002	0.0	3.844000e-002	3.171811e-002	0.0	4.474000e-002	3.389028e-002	0.0	5.149000e-002	3.599338e-002	0.0	5.869000e-002	3.802636e-002	0.0	6.633000e-002	3.998514e-002	0.0	7.440000e-002	4.186608e-002	0.0	8.290000e-002	4.366791e-002	0.0	9.181000e-002	4.538527e-002	0.0	1.011300e-001	4.701715e-002	0.0	1.108500e-001	4.856067e-002	0.0	1.209500e-001	5.001187e-002	0.0	1.314400e-001	5.137134e-002	0.0	1.422900e-001	5.263443e-002	0.0	1.534900e-001	5.379978e-002	0.0	1.650400e-001	5.486709e-002	0.0	1.769300e-001	5.583514e-002	0.0	1.891400e-001	5.670228e-002	0.0	2.016600e-001	5.746811e-002	0.0	2.144700e-001	5.813197e-002	0.0	2.275700e-001	5.869457e-002	0.0	2.409400e-001	5.915586e-002	0.0	2.545700e-001	5.951658e-002	0.0	2.684500e-001	5.977766e-002	0.0	2.825500e-001	5.994005e-002	0.0	2.968700e-001	6.000550e-002	0.0	3.114000e-001	5.997565e-002	0.0	3.261100e-001	5.985254e-002	0.0	3.409900e-001	5.963848e-002	0.0	3.560400e-001	5.933562e-002	0.0	3.712300e-001	5.894684e-002	0.0	3.865400e-001	5.847521e-002	0.0	4.019700e-001	5.792324e-002	0.0	4.175000e-001	5.729417e-002	0.0	4.331100e-001	5.659142e-002	0.0	4.487800e-001	5.581860e-002	0.0	4.645100e-001	5.497836e-002	0.0	4.802700e-001	5.407492e-002	0.0	4.960500e-001	5.311154e-002	0.0	5.118400e-001	5.209138e-002	0.0	5.276100e-001	5.101898e-002	0.0	5.433600e-001	4.989684e-002	0.0	5.590600e-001	4.872956e-002	0.0	5.747100e-001	4.751951e-002	0.0	5.902800e-001	4.627133e-002	0.0	6.057600e-001	4.498807e-002	0.0	6.211300e-001	4.367359e-002	0.0	6.363800e-001	4.233084e-002	0.0	6.515000e-001	4.096270e-002	0.0	6.664700e-001	3.957289e-002	0.0	6.812700e-001	3.816515e-002	0.0	6.958900e-001	3.674225e-002	0.0	7.103200e-001	3.530689e-002	0.0	7.245300e-001	3.386377e-002	0.0	7.385200e-001	3.241453e-002	0.0	7.522800e-001	3.096181e-002	0.0	7.657800e-001	2.951034e-002	0.0	7.790100e-001	2.806277e-002	0.0	7.919700e-001	2.662063e-002	0.0	8.046400e-001	2.518764e-002	0.0	8.170100e-001	2.376642e-002	0.0	8.290500e-001	2.236196e-002	0.0	8.407700e-001	2.097463e-002	0.0	8.521600e-001	1.960709e-002	0.0	8.631800e-001	1.826569e-002	0.0	8.738500e-001	1.694956e-002	0.0	8.841500e-001	1.566269e-002	0.0	8.940600e-001	1.440916e-002	0.0	9.035800e-001	1.319056e-002	0.0	9.127000e-001	1.200973e-002	0.0	9.214000e-001	1.087086e-002	0.0	9.296900e-001	9.774221e-003	0.0	9.375400e-001	8.725349e-003	0.0	9.449600e-001	7.724467e-003	0.0	9.519400e-001	6.774429e-003	0.0	9.584700e-001	5.878077e-003	0.0	9.645400e-001	5.038225e-003	0.0	9.701500e-001	4.256269e-003	0.0	9.752800e-001	3.536324e-003	0.0	9.799500e-001	2.876826e-003	0.0	9.841300e-001	2.283177e-003	0.0	9.878400e-001	1.753610e-003	0.0	9.910500e-001	1.293364e-003	0.0	9.937800e-001	9.004365e-004	0.0	9.960200e-001	5.769984e-004	0.0	9.977600e-001	3.251112e-004	0.0	9.990000e-001	1.452538e-004	0.0	9.997500e-001	3.632897e-005	0.0	1.000000e+000	0.000000e+000	0.0	1.984229e+001	2.506660e+000	0.0	1.937166e+001	4.973800e+000	0.0	1.859553e+001	7.362490e+000	0.0	1.752613e+001	9.635070e+000	0.0	1.618034e+001	1.175571e+001	0.0	1.457937e+001	1.369094e+001	0.0	1.274848e+001	1.541027e+001	0.0	1.071654e+001	1.688656e+001	0.0	8.515590e+000	1.809654e+001	0.0	6.180340e+000	1.902113e+001	0.0	3.747630e+000	1.964575e+001	0.0	1.255810e+000	1.996053e+001	0.0	-1.255810e+000	1.996053e+001	0.0	-3.747630e+000	1.964574e+001	0.0	-6.180340e+000	1.902113e+001	0.0	-8.515590e+000	1.809654e+001	0.0	-1.071654e+001	1.688656e+001	0.0	-1.274848e+001	1.541026e+001	0.0	-1.457937e+001	1.369094e+001	0.0	-1.618034e+001	1.175570e+001	0.0	-1.752613e+001	9.635070e+000	0.0	-1.859553e+001	7.362490e+000	0.0	-1.937166e+001	4.973800e+000	0.0	-1.984229e+001	2.506660e+000	0.0	-2.000000e+001	0.000000e+000	0.0	-1.984229e+001	-2.506670e+000	0.0	-1.937166e+001	-4.973800e+000	0.0	-1.859553e+001	-7.362490e+000	0.0	-1.752613e+001	-9.635080e+000	0.0	-1.618034e+001	-1.175571e+001	0.0	-1.457937e+001	-1.369094e+001	0.0	-1.274848e+001	-1.541027e+001	0.0	-1.071653e+001	-1.688656e+001	0.0	-8.515580e+000	-1.809654e+001	0.0	-6.180340e+000	-1.902113e+001	0.0	-3.747620e+000	-1.964575e+001	0.0	-1.255810e+000	-1.996053e+001	0.0	1.255810e+000	-1.996053e+001	0.0	3.747630e+000	-1.964574e+001	0.0	6.180340e+000	-1.902113e+001	0.0	8.515590e+000	-1.809654e+001	0.0	1.071654e+001	-1.688656e+001	0.0	1.274848e+001	-1.541026e+001	0.0	1.457937e+001	-1.369094e+001	0.0	1.618034e+001	-1.175570e+001	0.0	1.752614e+001	-9.635070e+000	0.0	1.859553e+001	-7.362490e+000	0.0	1.937166e+001	-4.973790e+000	0.0	1.984229e+001	-2.506660e+000	0.0	2.000000e+001	0.000000e+000	0.0	6.071847e-002	-4.599300e-002	0.0	6.602584e-001	-5.397924e-002	0.0	4.259462e-001	7.123173e-002	0.0	6.898893e-001	5.084802e-002	0.0	3.793152e-001	-7.273116e-002	0.0	9.994604e-001	-7.202256e-004	0.0	9.985440e-001	-1.312423e-003	0.0	7.737237e-001	-4.090969e-002	0.0	6.898893e-001	-5.084802e-002	0.0	-1.456769e-003	6.464601e-003	0.0	7.467285e-001	-4.428984e-002	0.0	5.836398e-001	6.115854e-002	0.0	9.927702e-001	-3.577733e-003	0.0	9.898650e-001	-4.450375e-003	0.0	5.991925e-001	5.980916e-002	0.0	7.187526e-001	-4.760665e-002	0.0	-1.597618e-003	7.671995e-004	0.0	9.864674e-001	-5.394793e-003	0.0	9.825871e-001	-6.398977e-003	0.0	-1.456774e-003	-6.464600e-003	0.0	6.451948e-001	-5.549610e-002	0.0	8.243215e-001	-3.409983e-002	0.0	7.996157e-001	-3.751255e-002	0.0	3.487901e-001	7.326090e-002	0.0	8.477112e-001	-3.071909e-002	0.0	2.474256e-001	7.182160e-002	0.0	8.697233e-001	-2.738134e-002	0.0	9.916188e-003	2.185203e-002	0.0	8.902508e-001	-2.411717e-002	0.0	7.700293e-002	-5.054436e-002	0.0	9.092206e-001	-2.095307e-002	0.0	-1.944578e-003	-3.190372e-003	0.0	9.421664e-001	-1.502079e-002	0.0	9.265514e-001	-1.791177e-002	0.0	1.789678e-002	-2.766280e-002	0.0	4.259462e-001	-7.123173e-002	0.0	8.588986e-001	-2.904064e-002	0.0	9.560213e-001	-1.230722e-002	0.0	9.782180e-001	-7.479396e-003	0.0	9.680592e-001	-9.783205e-003	0.0	1.582863e-001	-6.490557e-002	0.0	8.999374e-001	-2.252139e-002	0.0	7.603588e-001	-4.260503e-002	0.0	9.971186e-001	-2.046344e-003	0.0	5.991925e-001	-5.980916e-002	0.0	4.416505e-001	-7.055456e-002	0.0	5.365104e-001	-6.487405e-002	0.0	4.732224e-001	-6.895566e-002	0.0	5.048788e-001	-6.705339e-002	0.0	4.890394e-001	-6.804024e-002	0.0	1.249513e-001	-6.028257e-002	0.0	2.780447e-002	-3.325805e-002	0.0	3.947663e-001	-7.232395e-002	0.0	4.619013e-002	-4.112
[...]
POINT_DATA 5233
SCALARS Density float 1
LOOKUP_TABLE default
1.18616007897010e+00	1.16127709792389e+00	1.14538648722316e+00	1.13182386679374e+00	1.12007593256565e+00	1.11073431304270e+00	1.10454841038688e+00	1.10196703313574e+00	1.10188466392440e+00	1.10231603583626e+00	1.10119839350363e+00	1.09735553090956e+00	1.09108179381322e+00	1.08368576621569e+00	1.07598161020392e+00	1.06782099872630e+00	1.05878308657337e+00	1.04884632404262e+00	1.03847622189262e+00	1.02833486051045e+00	1.01891618931577e+00	1.01035312945718e+00	1.00247061319747e+00	9.95016102867003e-01	9.87710365414312e-01	9.80405089956554e-01	9.73015188620839e-01	9.65550636339269e-01	9.58083897157519e-01	9.50771151575196e-01	9.43712405419737e-01	9.36792697462692e-01	9.29596409295572e-01	9.21842973755617e-01	9.13191204765040e-01	9.04887461796890e-01	8.97255765454153e-01	8.90656281143162e-01	8.84059243960266e-01	8.72008624641622e-01	8.59678500910203e-01	8.50575119009588e-01	8.44038816358958e-01	8.39873799192935e-01	8.36238004546177e-01	8.33382197630524e-01	8.32177491720500e-01	8.31777939591078e-01	8.34247231836427e-01	8.40756380014071e-01	8.48110450767510e-01	8.53843511413324e-01	8.58776390591581e-01	8.65738626196261e-01	8.76317676075023e-01	8.87795633003417e-01	8.99538324722728e-01	9.09860254435225e-01	9.16553601059295e-01	9.17951394836655e-01	9.16668400484468e-01	9.14897759652354e-01	9.13194620093379e-01	9.11499185281205e-01	9.09027497987998e-01	9.05173088539916e-01	9.00942469049316e-01	8.96724325776405e-01	8.93068008937711e-01	8.90564341761974e-01	8.88861605985187e-01	8.87445974845510e-01	8.85960203618881e-01	8.84269422459565e-01	8.82718592562037e-01	8.81597546353417e-01	8.81243999322325e-01	8.81828380621921e-01	8.83272677130881e-01	8.85498644790577e-01	8.88578580653264e-01	8.92600684284223e-01	8.97746269962818e-01	9.04155412270978e-01	9.12056310550242e-01	9.21775595349792e-01	9.33586026541322e-01	9.47894599538809e-01	9.65275535383724e-01	9.86252624038002e-01	1.01171715942636e+00	1.04257786555081e+00	1.07941313180212e+00	1.12292744197860e+00	1.17287931528952e+00	1.22725469452414e+00	1.27968574126106e+00	1.33116075378678e+00	1.35012284376250e+00	1.34796279816723e+00	1.34683892386850e+00	1.32240673098827e+00	1.26639690563763e+00	1.21278462924995e+00	1.15795207384012e+00	1.10649246764809e+00	1.06010279368462e+00	1.01901476801590e+00	9.82681468090649e-01	9.50767659822393e-01	9.22618959657013e-01	8.97499490697665e-01	8.75063725478480e-01	8.54808127082111e-01	8.36423394004287e-01	8.19725028078359e-01	8.04365623637868e-01	7.90017087814396e-01	7.76548238090514e-01	7.63842223230906e-01	7.51925005764636e-01	7.40853226684800e-01	7.30557869013542e-01	7.20764141138740e-01	7.11270682578748e-01	7.02112232884794e-01	6.93598191137199e-01	6.85687103379131e-01	6.78144895630511e-01	6.70735480152914e-01	6.63581543093410e-01	6.56879785031108e-01	6.50817822509430e-01	6.45352833061499e-01	6.40419074489109e-01	6.35877183261983e-01	6.31633391385955e-01	6.27660454782438e-01	6.23854132576421e-01	6.20248162390274e-01	6.16886151806364e-01	6.13883224008163e-01	6.10942865953668e-01	6.07818389555705e-01	6.04999306768981e-01	6.02836924984972e-01	6.01713068339741e-01	6.02190085975610e-01	6.07120793023755e-01	6.18614660411273e-01	6.36472590500664e-01	6.62401627716524e-01	6.96715283256642e-01	7.51449205690723e-01	8.19994559153026e-01	8.79907005700832e-01	9.36083407328645e-01	9.95513037170172e-01	1.03671994282454e+00	1.05410430510089e+00	1.05895228226881e+00	1.05035576183262e+00	1.03239891942622e+00	1.01614579971317e+00	1.00641318998197e+00	1.00300797602986e+00	9.98843717438321e-01	9.96603000208579e-01	9.96239859440903e-01	9.96364029845415e-01	9.97428918706413e-01	9.99559703472120e-01	1.00232949197114e+00	1.00414476684882e+00	1.00573983362370e+00	1.00752754792074e+00	1.00951997104331e+00	1.01174254502552e+00	1.01431163756808e+00	1.01730514834654e+00	1.02062400221526e+00	1.02395983152411e+00	1.02693558828694e+00	1.02952754541685e+00	1.03246415248897e+00	1.03695681010696e+00	1.04412441170283e+00	1.05381628499425e+00	1.06392205757844e+00	1.07222195500748e+00	1.07870777443035e+00	1.08458524749652e+00	1.09114166373554e+00	1.09927588883532e+00	1.10881307663114e+00	1.11984337356009e+00	1.13210615777976e+00	1.14698485166112e+00	1.16373432178641e+00	1.15930541443678e+00	9.98974589554396e-01	9.99726233759896e-01	9.99813696638243e-01	9.99709319722159e-01	9.99643791986407e-01	9.99559606253900e-01	9.99457965163248e-01	9.99329458385829e-01	9.99188313720570e-01	9.99092118972576e-01	9.99043494991785e-01	9.99107016769749e-01	9.99256571515841e-01	9.99530918199175e-01	9.99759549471444e-01	9.99943954056398e-01	1.00004758150292e+00	1.00011224922701e+00	1.00015206792118e+00	1.00017050953602e+00	1.00018081237630e+00	1.00018494655976e+00	1.00018845609304e+00	1.00019441442961e+00	1.00019945320062e+00	1.00020790921913e+00	1.00022325010115e+00	1.00024275748165e+00	1.00027042201784e+00	1.00031147780666e+00	1.00035745179070e+00	1.00043173917510e+00	1.00050292527708e+00	1.00062164497351e+00	1.00072836557044e+00	1.00085448408337e+00	1.00098049620420e+00	1.00102087816391e+00	1.00102421567012e+00	1.00093957179584e+00	1.00084919688319e+00	1.00072207486061e+00	1.00060369454398e+00	1.00048709824460e+00	1.00038389469504e+00	1.00025539023432e+00	1.00014989641478e+00	1.00017820338019e+00	9.99459526026913e-01	9.98477821806557e-01	9.14559924891891e-01	8.84038806657481e-01	6.07230413148372e-01	1.04143684751257e+00	9.07809274362031e-01	1.16505702133086e+00	1.15246181729158e+00	9.43413201455049e-01	8.97665230892492e-01	1.30380408439593e+00	9.29545512005656e-01	8.54483041698677e-01	1.11702890217784e+00	1.10954381271345e+00	9.07683349787444e-01	9.12676916086693e-01	1.34509857547544e+00	1.10468448460453e+00	1.10220013353678e+00	1.31331437164447e+00	8.69003629910420e-01	9.71622050056605e-01	9.57110709649874e-01	6.23889207234138e-01	9.86114104457604e-01	6.56006889008911e-01	1.00068175920060e+00	1.07449070815171e+00	1.01641382896563e+00	9.01338705579349e-01	1.03452219424855e+00	1.34136433982448e+00	1.07003543564345e+00	1.05350006280224e+00	1.02989654611104e+00	8.73642339048400e-01	9.93348420625398e-01	1.08440131631419e+00	1.10089595354401e+00	1.09606796824261e+00	8.89497276547922e-01	1.02517516921320e+00	9.36639356872312e-01	1.13835928587984e+00	8.46115237237692e-01	8.64473440655721e-01	8.35934477747374e-01	8.54881041421558e-01	8.40806144431292e-01	8.48316228318668e-01	8.87368400886320e-01	9.81475060380818e-01	8.96554845358778e-01	9.34237153147743e-01	8.84945853425033e-01	9.17971001932592e-01	9.20503304476382e-01	9.62845396184667e-01	9.14545598382298e-01	1.06217376580088e+00	8.88283140472039e-01	8.92855801821181e-01	8.96614697164917e-01	8.90109533688823e-01	8.38670699701251e-01	8.90722472158227e-01	8.50876935772469e-01	1.00830612454593e+00	1.00359959708761e+00	1.12684035887112e+00	1.13749901334216e+00	9.98677740239980e-01	1.04412905426747e+00	1.07734986988695e+00	1.09926233724386e+00	1.26154540352933e+00	9.78897014294701e-01	9.05288139657124e-01	8.36685204457416e-01	9.21370784297698e-01	9.50139369864233e-01	8.88237912091767e-01	8.97253829992608e-01	8.42260265510144e-01	8.92207091174765e-01	9.23466211461704e-01	1.18242448362318e+00	1.06078336240704e+00	9.16824353590744e-01	8.91750918019932e-01	1.19977404211375e+00	9.01259503952239e-01	8.92911891204091e-01	9.16112814370332e-01	9.09488652363919e-01	8.59595884760725e-01	9.04888227849666e-01	1.33716399620507e+00	1.27506763693616e+00	6.78580663088714e-01	1.34581534900317e+00	9.37735536636127e-01	8.48505974527839e-01	8.88599496032499e-01	7.49058578623731e-01	6.10191856636483e-01	1.12529354327852e+00	6.49275620370378e-01	6.05477479631655e-01	1.06869129869708e+00	1.05107571136520e+00	1.01493580998750e+00	6.14235441398482e-01	6.05188536619295e-01	6.17177348580116e-01	1.02737282779811e+00	1.02089471855243e+00	8.00037711971231e-01	1.07580106218027e+00	1.04313139782000e+00	1.03337477658552e+00	7.72783701162814e-01	8.31094048605173e-01	6.40482573653638e-01	6.50392786737502e-01	7.00134794656407e-01	6.31759885073797e-01	6.04428980635749e-01	6.13600203887897e-01	7.18208306830626e-01	7.38342811033512e-01	1.02451889849962e+00	6.83999267122585e-01	6.68988333268288e-01	1.05987246963772e+00	7.87536739067782e-01	1.00155688366266e+00	1.00904535331360e+00	9.97851562578759e-01	9.97264063801565e-01	1.00645411119874e+00	1.00257910950510e+00	1.01775622784875e+00	1.01025496579100e+00	1.03733051717158e+00	1.02418411511234e+00	1.06019242420224e+00	1.00824197411989e+00	1.01246112298424e+00	9.99474782994039e-01	1.00486234594099e+00	9.97924572667852e-01	9.97248638582122e-01	1.02398174645278e+00	1.00536933536771e+00	1.04935310542511e+00	1.05875465253882e+00	7.19450014165884e-01	9.68170287643783e-01	6.76329335700899e-01	6.62224803054795e-01	7.08878213494591e-01	6.91945873092607e-01	8.67559633318777e-01	7.28121159185839e-01	1.03457899910333e+00	9.11903836591165e-01	8.94517475862586e-01	1.16510106638145e+00	1.09093016966894e+00	9.64316702356768e-01	9.19597378660577e-01	8.35814229456311e-01	1.21430660332485e+00	9.66491563223249e-01	1.11811649717233e+00	7.85985495761161e-01	8.15007396016143e-01	6.45238148415672e-01	7.60483331724811e-01	1.08212771460172e+00	1.08857195811708e+00	6.36010764500566e-01	1.09596709814481e+00	1.10452458612141e+00	6.27748543191247e-01	6.20362859114735e-01	1.03033303534473e+00	1.17530310974369e+00	1.13827343050997e+00	1.15094125742653e+00	8.59100236430722e-01	9.47236178843572e-01	1.11433165578049e+00	6.27571841154719e-01	1.22992628743201e+00	1.09674488467376e+00	9.07251722308390e-01	8.87480783823459e-01	9.12727256731343e-01	8.26735512133385e-01	1.28099359395725e+00	1.31559371314707e+00	9.15866877838372e-01	9.05563015187874e-01	1.03984866771104e+00	1.13894871481245e+00	8.24673404999905e-01	8.99251286863600e-01	9.49950593439515e-01	1.10789120531631e+00	9.21160254429592e-01	9.91995472640664e-01	9.77778579972879e-01	9.05270428847770e-01	1.29086564982951e+00	8.99082444554293e-01	1.07035129433140e+00	1.08487947186670e+00	8.94310030460933e-01	9.13113115775852e-01	8.81612139686395e-01	8.65938445078071e-01	9.10654535456385e-01	9.04885093822045e-01	1.02251244056394e+00	9.56599963443655e-01	1.11861502583650e+00	1.00902182870328e+00	1.06119421595264e+00	1.00715638744806e+00	7.70713246938729e-01	1.05151435568539e+00	7.17349399259020e-01	1.01319124123661e+00	1.09218558945016e+00	6.32610553079945e-01	6.40389694094227e-01	1.04293676998575e+00	1.01561508869228e+00	1.09963750196770e+00	1.04953858549002e+00	1.07885014256303e+00	6.69301324494146e-01	6.37026595171094e-01	6.76176955927268e-01	7.83266175242775e-01	8.93639303206123e-01	8.97254706198768e-01	1.07929975241649e+00	7.36845998767922e-01	8.80523948317667e-01	1.06505430536842e+00	1.10808398206858e+00	1.01830626401472e+00	8.94941002428291e-01	1.19010078635559e+00	1.12788113018176e+00	1.11738610900678e+00	1.15988853271221e+00	1.24403184879582e+00	1.17759353533898e+00	1.33741473124109e+00	1.33941518124887e+00	1.04139741665981e+00	1.20066359605182e+00	9.25235012815281e-01	1.14174524563662e+00	1.12154030011897e+00	6.13519613776497e-01	8.41083885791676e-01	1.10366462562732e+00	1.00659636112072e+00	8.82588600564614e-01	1.11378719723589e+00	1.32146441274823e+00	8.72086150074232e-01	6.17141245878064e-01	9.84867118488741e-01	6.51566866703409e-01	9.99188927135083e-01	1.01432501848832e+00	9.17245612784852e-01	1.03107772551859e+00	1.04850286999250e+00	1.07147001993119e+00	9.94561648137066e-01	1.07836444250213e+00	1.09054733455306e+00	1.10072737126040e+00	8.94216666087725e-01	9.36755310888349e-01	9.43431514609086e-01	1.13093618032867e+00	8.61517541399509e-01	8.56059065107140e-01	8.48503608957743e-01	1.01637356187996e+00	8.93405372576943e-01	8.82690893676474e-01	9.22597665694828e-01	9.59841660146210e-01	1.05669773134961e+00	1.06431385437961e+00	8.93944354174891e-01	9.00943651610230e-01	8.42506956496035e-01	8.53070890962722e-01	1.09493265271378e+00	1.09813141458550e+00	9.21112990132762e-01	9.29512108342660e-01	8.97671441139305e-01	8.95412490607579e-01	8.45202460863404e-01	8.49098710607693e-01	9.46358667968860e-01	9.34892035926794e-01	1.10280954074244e+00	9.21642164370193e-01	9.14611908528372e-01	8.95634295661803e-01	8.96245321984032e-01	9.02230491897943e-01	9.06028538272474e-01	9.17526069856552e-01	9.19316133657447e-01	9.09895831979202e-01	1.33563615783135e+00	1.21815171528494e+00	9.01589708928725e-01	1.08532520392813e+00	6.64904383187914e-01	6.23573283801960e-01	6.12515443120649e-01	6.08206526574206e-01	1.07225001366697e+00	1.05725678713312e+00	1.02757742051224e+00	6.08846813345872e-01	6.10646634730556e-01	6.21392994420860e-01	1.02440240929335e+00	1.03785767063976e+00	8.43256023072210e-01	8.61145415704093e-01	6.62973174615076e-01	6.57025726811188e-01	7.26770462153642e-01	7.47756899894472e-01	7.58987654764816e-01	9.98426940170561e-01	1.00471626921582e+00	1.00746314717241e+00	9.98404667565816e-01	1.00549323886057e+00	1.02126213229937e+00	1.01097660063757e+00	1.00893635772847e+00	1.00236411729158e+00	9.99853252446741e-01	9.98180966348211e-01	1.00001145203126e+00	1.01545674193882e+00	1.03226562240398e+00	1.05537188317802e+00	1.04030797763971e+00	7.53226557772511e-01	6.97762009349139e-01	9.99990688975663e-01	9.37735463144370e-01	6.83454327019748e-01	6.91382320261545e-01	6.99709639640557e-01	7.08458370951222e-01	1.04279906122832e+00	9.24770339448491e-01	9.50396522119288e-01	9.63526793307770e-01	9.70643458065561e-01	8.42240159492418e-01	8.40368526640514e-01	1.20273675200165e+00	9.78417416564346e-01	7.96782803658521e-01	8.11266474733627e-01	6.41570092480927e-01	6.46410098594124e-01	6.25052131306213e-01	6.28667481402883e-01	1.03399012419634e+00	1.03071446167406e+00	8.59645222275496e-01	8.68427608768599e-01	9.75760689309203e-01	1.25712040041443e+00	9.13523453103465e-01	1.29876497523263e+00	9.02654170489275e-01	9.19105359931525e-01	9.56958354849591e-01	8.46320305954733e-01	1.04436551570688e+00	1.09530420928600e+00	1.08848959346183e+00	1.05526511059274e+00	1.19252250026209e+00	1.10308061255300e+00	1.13906531742159e+00	1.15461013655160e+00	1.13321744044294e+00	1.18035839015384e+00	1.05148214292998e+00	1.31552783596423e+00	9.14017739331746e-01	1.05208403581029e+00	1.11064871084862e+00	7.92709657380292e-01	1.15431687282066e+00	1.17351462430532e+00	9.14377185663449e-01	1.24154900826998e+00	9.21911292074060e-01	1.07808450730765e+00	1.00515540560882e+00	1.13969196738016e+00	9.24452836811202e-01	9.98003261567762e-01	9.07442694958139e-01	1.11743328912149e+00	1.10782205630161e+00	1.07563429325584e+00	6.54964342996149e-01	1.04295789740572e+00	1.06021656339832e+00	1.11077378265602e+00	6.34218679428473e-01	6.64358776908149e-01	6.42723189077346e-01	7.36831894098572e-01	8.56177841070882e-01	1.14795768308651e+00	1.26852567614232e+00	1.25845349321119e+00	1.04999559582121e+00	1.29240857327222e+00	1.08524432104228e+00	9.19974753442073e-01	1.33230359881193e+00	9.00077317482649e-01	8.68248603906846e-01	1.02770675085464e+00	1.11878528850724e+00	1.00776539320646e+00	9.99107592590015e-01	1.05834523092698e+00	1.08204377310879e+00	1.04864122125301e+00	1.01877775320226e+00	1.01616057773998e+00	6.47679153898762e-01	6.58401412283581e-01	6.84280254610085e-01	7.95070358072730e-01	8.94392315354102e-01	9.01881743793313e-01	9.01781034642791e-01	1.08365487437904e+00	7.46753763905632e-01	1.06913147922714e+00	1.11896702688391e+00	1.15539903288042e+00	1.22845690096595e+00	1.20804971621575e+00	1.31711225972117e+00	1.00631888155192e+00	1.17182817736063e+00	1.16158495294895e+00	1.09019542514347e+00	1.10545273498083e+00	8.57287151025705e-01	8.72727819697508e-01	6.21339206709408e-01	9.83999029356915e-01	9.90993291439751e-01	1.01251865731272e+00	1.02023182162530e+00	9.35762593230101e-01	9.27173731809946e-01	1.02815446023924e+00	1.03631109471673e+00	1.07306682657728e+00	1.07944820116870e+00	1.10132555536585e+00	9.44184059506364e-01	9.50593146395129e-01	1.12501718732613e+00	8.63597747610478e-01	8.57147232204622e-01	8.91801876488101e-01	8.81102314521191e-01	9.87797442029927e-01	1.05943278284523e+00	1.06636433629937e+00	9.01056389838770e-01	9.00316741512000e-01	8.47290611463122e-01	8.49460054001249e-01	1.09429153318546e+00	1.09779319173000e+00	9.30004182003855e-01	9.37596558513933e-01	9.09183507771790e-01	9.05277963202820e-01	9.02565521110177e-01	8.52829250542737e-01	8.56699326555456e-01	9.71983001781821e-01	9.58097045506347e-01	9.46012911932592e-01	9.25163113214719e-01	9.21544133146972e-01	9.12840862912656e-01	9.00295180487700e-01	9.00482844096073e-01	9.00876398179823e-01	9.03912531922215e-01	9.07105144913581e-01	9.20894732334751e-01	9.22749601002215e-01	9.10673448724197e-01	9.15000303950534e-01	6.21261438737799e-01	6.13227409237052e-01	1.06227105061601e+00	6.13089764425527e-01	6.14945286296668e-01	6.17479175835883e-01	6.25780022683553e-01	1.02779366019427e+00	8.74340210633446e-01	8.93987689502844e-01	6.70535940455296e-01	6.77309734744614e-01	7.57600865174552e-01	7.69832107662886e-01	7.82380706406352e-01	1.00656314801139e+00	1.02465415569051e+00	1.02162256626814e+00	1.01375011457290e+00	1.01154554836754e+00	1.00956531672909e+00	1.00555650638096e+00	1.00211937331700e+00	1.00013328752543e+00	9.98919310324501e-01	9.99051109933985e-01	1.00227478839200e+00	1.00960350795302e+00	1.02303200964730e+00	1.04084272827392e+00	1.04942548898230e+00	7.23170375572512e-01	6.82851705090448e-01	1.02508754049356e+00	9.72224721795651e-01	9.10247503330711e-01	6.91794088433050e-01	6.99600881593595e-01	7.08286558607338e-01	7.17469049070472e-01	7.27191336044565e-01	9.37582631151234e-01	9.62500038924844e-01	9.63526296733894e-01	9.70338588212095e-01	9.77123197147721e-01	8.50030037437119e-01	8.46163925217284e-01	9.89795640334335e-01	1.01876133607914e+00	8.08679949406206e-01	8.23492228145169e-01	8.39294319416207e-01	6.52924754302836e-01	6.30488428313937e-01	6.34373992778094e-01	6.38304207265684e-01	1.03832518487734e+00	1.03447177088762e+00	1.03104130203630e+00	8.61976334486528e-01	8.69711428914911e-01	8.80216155911949e-01	9.14291602806967e-01	9.17253918966481e-01	1.27624688990061e+00	9.22888087247950e-01	1.11195537123095e+00	1.07862626620991e+00	8.52277009742054e-01	1.29367880167781e+00	1.14136418500404e+00	1.04826644468883e+00	1.05531961493401e+00	1.01647444602518e+00	1.09774033533645e+00	6.33624236893670e-01	1.24869571485574e+00	1.08578278932597e+00	1.16668162252874e+00	1.05383013862523e+00	1.10474676220639e+00	1.23859524862565e+00	1.05562902571337e+00	1.21215526108468e+00	1.15736992292914e+00	1.17506767724067e+00	9.63692916363132e-01	9.06406875113393e-01	1.05954286837174e+00	9.00540854094599e-01	9.29391780852839e-01	8.75303888554359e-01	9.22678340650685e-01	1.08479186890463e+00	7.55568031764598e-01	1.04800200845097e+00	1.04287795897405e+00	9.99718661856549e-01	7.58962026705569e-01	6.80319726301302e-01	1.10722860689258e+00	8.87249970733008e-01	1.00445982521076e+00	1.12697557126252e+00	1.09112058047821e+00	1.12641906960436e+00	1.09003158497058e+00	1.08344257331973e+00	9.15988127446080e-01	1.19637205573463e+00	9.23658053134955e-01	9.30420595896990e-01	1.11000972786689e+00	1.11290317683315e+00	1.13803974202927e+00	1.00796855476915e+00	6.47627414639514e-01	6.61136297994976e-01	1.26909143291816e+00	1.11709268940563e+00	1.05907891110608e+00	1.01928000655773e+00	6.55767368271241e-01	6.67347813188069e-01	6.73389537889811e-01	9.04010908355273e-01	9.10874892973771e-01	1.07247494688144e+00	1.14867960310659e+00	1.18108140934232e+00	1.22497215765908e+00	1.29551727994295e+00	1.03700222512438e+00	1.08545057379868e+00	1.10238438506655e+00	8.33842647570710e-01	9.90663884268078e-01	9.97399683971363e-01	1.01149725694610e+00	1.01871785354737e+00	9.46041733926946e-01	9.37054316625261e-01	1.02605675013441e+00	1.03357231095278e+00	1.04103464528390e+00	1.07447628979388e+00	1.08027867461153e+00	9.51085576917044e-01	9.57848421055184e-01	1.11940999239967e+00	8.71082967328804e-01	8.65773322577095e-01	8.90337654199973e-01	8.81042488139436e-01	1.06201452685980e+00	1.06828713137705e+00	9.08479259750934e-01	9.06861495303031e-01	8.55009227526819e-01	1.09412667135784e+00	1.09813023987449e+00	9.38560314489669e-01	9.45993416992366e-01	9.17479798674613e-01	9.13273712582285e-01	9.10473746393914e-01	8.56689037