# vtk DataFile Version 3.0
vtk output
ASCII
DATASET UNSTRUCTURED_GRID
POINTS 5233 float
9.997500e-001	-3.632897e-005	0.0	9.990000e-001	-1.452538e-004	0.0	9.977600e-001	-3.251112e-004	0.0	9.960200e-001	-5.769984e-004	0.0	9.937800e-001	-9.004365e-004	0.0	9.910500e-001	-1.293364e-003	0.0	9.878400e-001	-1.753610e-003	0.0	9.841300e-001	-2.283177e-003	0.0	9.799500e-001	-2.876826e-003	0.0	9.752800e-001	-3.536324e-003	0.0	9.701500e-001	-4.256269e-003	0.0	9.645400e-001	-5.038225e-003	0.0	9.584700e-001	-5.878077e-003	0.0	9.519400e-001	-6.774429e-003	0.0	9.449600e-001	-7.724467e-003	0.0	9.375400e-001	-8.725349e-003	0.0	9.296900e-001	-9.774221e-003	0.0	9.214000e-001	-1.087086e-002	0.0	9.127000e-001	-1.200973e-002	0.0	9.035800e-001	-1.319056e-002	0.0	8.940600e-001	-1.440916e-002	0.0	8.841500e-001	-1.566269e-002	0.0	8.738500e-001	-1.694956e-002	0.0	8.631800e-001	-1.826569e-002	0.0	8.521600e-001	-1.960709e-002	0.0	8.407700e-001	-2.097463e-002	0.0	8.290500e-001	-2.236196e-002	0.0	8.170100e-001	-2.376642e-002	0.0	8.046400e-001	-2.518764e-002	0.0	7.919700e-001	-2.662063e-002	0.0	7.790100e-001	-2.806277e-002	0.0	7.657800e-001	-2.951034e-002	0.0	7.522800e-001	-3.096181e-002	0.0	7.385200e-001	-3.241453e-002	0.0	7.245300e-001	-3.386377e-002	0.0	7.103200e-001	-3.530689e-002	0.0	6.958900e-001	-3.674225e-002	0.0	6.812700e-001	-3.816515e-002	0.0	6.664700e-001	-3.957289e-002	0.0	6.515000e-001	-4.096270e-002	0.0	6.363800e-001	-4.233084e-002	0.0	6.211300e-001	-4.367359e-002	0.0	6.057600e-001	-4.498807e-002	0.0	5.902800e-001	-4.627133e-002	0.0	5.747100e-001	-4.751951e-002	0.0	5.590600e-001	-4.872956e-002	0.0	5.433600e-001	-4.989684e-002	0.0	5.276100e-001	-5.101898e-002	0.0	5.118400e-001	-5.209138e-002	0.0	4.960500e-001	-5.311154e-002	0.0	4.802700e-001	-5.407492e-002	0.0	4.645100e-001	-5.497836e-002	0.0	4.487800e-001	-5.581860e-002	0.0	4.331100e-001	-5.659142e-002	0.0	4.175000e-001	-5.729417e-002	0.0	4.019700e-001	-5.792324e-002	0.0	3.865400e-001	-5.847521e-002	0.0	3.712300e-001	-5.894684e-002	0.0	3.560400e-001	-5.933562e-002	0.0	3.409900e-001	-5.963848e-002	0.0	3.261100e-001	-5.985254e-002	0.0	3.114000e-001	-5.997565e-002	0.0	2.968700e-001	-6.000550e-002	0.0	2.825500e-001	-5.994005e-002	0.0	2.684500e-001	-5.977766e-002	0.0	2.545700e-001	-5.951658e-002	0.0	2.409400e-001	-5.915586e-002	0.0	2.275700e-001	-5.869457e-002	0.0	2.144700e-001	-5.813197e-002	0.0	2.016600e-001	-5.746811e-002	0.0	1.891400e-001	-5.670228e-002	0.0	1.769300e-001	-5.583514e-002	0.0	1.650400e-001	-5.486709e-002	0.0	1.534900e-001	-5.379978e-002	0.0	1.422900e-001	-5.263443e-002	0.0	1.314400e-001	-5.137134e-002	0.0	1.209500e-001	-5.001187e-002	0.0	1.108500e-001	-4.856067e-002	0.0	1.011300e-001	-4.701715e-002	0.0	9.181000e-002	-4.538527e-002	0.0	8.290000e-002	-4.366791e-002	0.0	7.440000e-002	-4.186608e-002	0.0	6.633000e-002	-3.998514e-002	0.0	5.869000e-002	-3.802636e-002	0.0	5.149000e-002	-3.599338e-002	0.0	4.474000e-002	-3.389028e-002	0.0	3.844000e-002	-3.171811e-002	0.0	3.260000e-002	-2.948109e-002	0.0	2.723000e-002	-2.718420e-002	0.0	2.232000e-002	-2.482329e-002	0.0	1.790000e-002	-2.241365e-002	0.0	1.395000e-002	-1.994492e-002	0.0	1.049000e-002	-1.742916e-002	0.0	7.520000e-003	-1.486756e-002	0.0	5.040000e-003	-1.226032e-002	0.0	3.050000e-003	-9.605565e-003	0.0	1.560000e-003	-6.917518e-003	0.0	5.600000e-004	-4.173160e-003	0.0	6.000000e-005	-1.375330e-003	0.0	0.000000e+000	0.000000e+000	0.0	6.000000e-005	1.375330e-003	0.0	5.600000e-004	4.173160e-003	0.0	1.560000e-003	6.917518e-003	0.0	3.050000e-003	9.605565e-003	0.0	5.040000e-003	1.226032e-002	0.0	7.520000e-003	1.486756e-002	0.0	1.049000e-002	1.742916e-002	0.0	1.395000e-002	1.994492e-002	0.0	1.790000e-002	2.241365e-002	0.0	2.232000e-002	2.482329e-002	0.0	2.723000e-002	2.718420e-002	0.0	3.260000e-002	2.948109e-002	0.0	3.844000e-002	3.171811e-002	0.0	4.474000e-002	3.389028e-002	0.0	5.149000e-002	3.599338e-002	0.0	5.869000e-002	3.802636e-002	0.0	6.633000e-002	3.998514e-002	0.0	7.440000e-002	4.186608e-002	0.0	8.290000e-002	4.366791e-002	0.0	9.181000e-002	4.538527e-002	0.0	1.011300e-001	4.701715e-002	0.0	1.108500e-001	4.856067e-002	0.0	1.209500e-001	5.001187e-002	0.0	1.314400e-001	5.137134e-002	0.0	1.422900e-001	5.263443e-002	0.0	1.534900e-001	5.379978e-002	0.0	1.650400e-001	5.486709e-002	0.0	1.769300e-001	5.583514e-002	0.0	1.891400e-001	5.670228e-002	0.0	2.016600e-001	5.746811e-002	0.0	2.144700e-001	5.813197e-002	0.0	2.275700e-001	5.869457e-002	0.0	2.409400e-001	5.915586e-002	0.0	2.545700e-001	5.951658e-002	0.0	2.684500e-001	5.977766e-002	0.0	2.825500e-001	5.994005e-002	0.0	2.968700e-001	6.000550e-002	0.0	3.114000e-001	5.997565e-002	0.0	3.261100e-001	5.985254e-002	0.0	3.409900e-001	5.963848e-002	0.0	3.560400e-001	5.933562e-002	0.0	3.712300e-001	5.894684e-002	0.0	3.865400e-001	5.847521e-002	0.0	4.019700e-001	5.792324e-002	0.0	4.175000e-001	5.729417e-002	0.0	4.331100e-001	5.659142e-002	0.0	4.487800e-001	5.581860e-002	0.0	4.645100e-001	5.497836e-002	0.0	4.802700e-001	5.407492e-002	0.0	4.960500e-001	5.311154e-002	0.0	5.118400e-001	5.209138e-002	0.0	5.276100e-001	5.101898e-002	0.0	5.433600e-001	4.989684e-002	0.0	5.590600e-001	4.872956e-002	0.0	5.747100e-001	4.751951e-002	0.0	5.902800e-001	4.627133e-002	0.0	6.057600e-001	4.498807e-002	0.0	6.211300e-001	4.367359e-002	0.0	6.363800e-001	4.233084e-002	0.0	6.515000e-001	4.096270e-002	0.0	6.664700e-001	3.957289e-002	0.0	6.812700e-001	3.816515e-002	0.0	6.958900e-001	3.674225e-002	0.0	7.103200e-001	3.530689e-002	0.0	7.245300e-001	3.386377e-002	0.0	7.385200e-001	3.241453e-002	0.0	7.522800e-001	3.096181e-002	0.0	7.657800e-001	2.951034e-002	0.0	7.790100e-001	2.806277e-002	0.0	7.919700e-001	2.662063e-002	0.0	8.046400e-001	2.518764e-002	0.0	8.170100e-001	2.376642e-002	0.0	8.290500e-001	2.236196e-002	0.0	8.407700e-001	2.097463e-002	0.0	8.521600e-001	1.960709e-002	0.0	8.631800e-001	1.826569e-002	0.0	8.738500e-001	1.694956e-002	0.0	8.841500e-001	1.566269e-002	0.0	8.940600e-001	1.440916e-002	0.0	9.035800e-001	1.319056e-002	0.0	9.127000e-001	1.200973e-002	0.0	9.214000e-001	1.087086e-002	0.0	9.296900e-001	9.774221e-003	0.0	9.375400e-001	8.725349e-003	0.0	9.449600e-001	7.724467e-003	0.0	9.519400e-001	6.774429e-003	0.0	9.584700e-001	5.878077e-003	0.0	9.645400e-001	5.038225e-003	0.0	9.701500e-001	4.256269e-003	0.0	9.752800e-001	3.536324e-003	0.0	9.799500e-001	2.876826e-003	0.0	9.841300e-001	2.283177e-003	0.0	9.878400e-001	1.753610e-003	0.0	9.910500e-001	1.293364e-003	0.0	9.937800e-001	9.004365e-004	0.0	9.960200e-001	5.769984e-004	0.0	9.977600e-001	3.251112e-004	0.0	9.990000e-001	1.452538e-004	0.0	9.997500e-001	3.632897e-005	0.0	1.000000e+000	0.000000e+000	0.0	1.984229e+001	2.506660e+000	0.0	1.937166e+001	4.973800e+000	0.0	1.859553e+001	7.362490e+000	0.0	1.752613e+001	9.635070e+000	0.0	1.618034e+001	1.175571e+001	0.0	1.457937e+001	1.369094e+001	0.0	1.274848e+001	1.541027e+001	0.0	1.071654e+001	1.688656e+001	0.0	8.515590e+000	1.809654e+001	0.0	6.180340e+000	1.902113e+001	0.0	3.747630e+000	1.964575e+001	0.0	1.255810e+000	1.996053e+001	0.0	-1.255810e+000	1.996053e+001	0.0	-3.747630e+000	1.964574e+001	0.0	-6.180340e+000	1.902113e+001	0.0	-8.515590e+000	1.809654e+001	0.0	-1.071654e+001	1.688656e+001	0.0	-1.274848e+001	1.541026e+001	0.0	-1.457937e+001	1.369094e+001	0.0	-1.618034e+001	1.175570e+001	0.0	-1.752613e+001	9.635070e+000	0.0	-1.859553e+001	7.362490e+000	0.0	-1.937166e+001	4.973800e+000	0.0	-1.984229e+001	2.506660e+000	0.0	-2.000000e+001	0.000000e+000	0.0	-1.984229e+001	-2.506670e+000	0.0	-1.937166e+001	-4.973800e+000	0.0	-1.859553e+001	-7.362490e+000	0.0	-1.752613e+001	-9.635080e+000	0.0	-1.618034e+001	-1.175571e+001	0.0	-1.457937e+001	-1.369094e+001	0.0	-1.274848e+001	-1.541027e+001	0.0	-1.071653e+001	-1.688656e+001	0.0	-8.515580e+000	-1.809654e+001	0.0	-6.180340e+000	-1.902113e+001	0.0	-3.747620e+000	-1.964575e+001	0.0	-1.255810e+000	-1.996053e+001	0.0	1.255810e+000	-1.996053e+001	0.0	3.747630e+000	-1.964574e+001	0.0	6.180340e+000	-1.902113e+001	0.0	8.515590e+000	-1.809654e+001	0.0	1.071654e+001	-1.688656e+001	0.0	1.274848e+001	-1.541026e+001	0.0	1.457937e+001	-1.369094e+001	0.0	1.618034e+001	-1.175570e+001	0.0	1.752614e+001	-9.635070e+000	0.0	1.859553e+001	-7.362490e+000	0.0	1.937166e+001	-4.973790e+000	0.0	1.984229e+001	-2.506660e+000	0.0	2.000000e+001	0.000000e+000	0.0	6.071847e-002	-4.599300e-002	0.0	6.602584e-001	-5.397924e-002	0.0	4.259462e-001	7.123173e-002	0.0	6.898893e-001	5.084802e-002	0.0	3.793152e-001	-7.273116e-002	0.0	9.994604e-001	-7.202256e-004	0.0	9.985440e-001	-1.312423e-003	0.0	7.737237e-001	-4.090969e-002	0.0	6.898893e-001	-5.084802e-002	0.0	-1.456769e-003	6.464601e-003	0.0	7.467285e-001	-4.428984e-002	0.0	5.836398e-001	6.115854e-002	0.0	9.927702e-001	-3.577733e-003	0.0	9.898650e-001	-4.450375e-003	0.0	5.991925e-001	5.980916e-002	0.0	7.187526e-001	-4.760665e-002	0.0	-1.597618e-003	7.671995e-004	0.0	9.864674e-001	-5.394793e-003	0.0	9.825871e-001	-6.398977e-003	0.0	-1.456774e-003	-6.464600e-003	0.0	6.451948e-001	-5.549610e-002	0.0	8.243215e-001	-3.409983e-002	0.0	7.996157e-001	-3.751255e-002	0.0	3.487901e-001	7.326090e-002	0.0	8.477112e-001	-3.071909e-002	0.0	2.474256e-001	7.182160e-002	0.0	8.697233e-001	-2.738134e-002	0.0	9.916188e-003	2.185203e-002	0.0	8.902508e-001	-2.411717e-002	0.0	7.700293e-002	-5.054436e-002	0.0	9.092206e-001	-2.095307e-002	0.0	-1.944578e-003	-3.190372e-003	0.0	9.421664e-001	-1.502079e-002	0.0	9.265514e-001	-1.791177e-002	0.0	1.789678e-002	-2.766280e-002	0.0	4.259462e-001	-7.123173e-002	0.0	8.588986e-001	-2.904064e-002	0.0	9.560213e-001	-1.230722e-002	0.0	9.782180e-001	-7.479396e-003	0.0	9.680592e-001	-9.783205e-003	0.0	1.582863e-001	-6.490557e-002	0.0	8.999374e-001	-2.252139e-002	0.0	7.603588e-001	-4.260503e-002	0.0	9.971186e-001	-2.046344e-003	0.0	5.991925e-001	-5.980916e-002	0.0	4.416505e-001	-7.055456e-002	0.0	5.365104e-001	-6.487405e-002	0.0	4.732224e-001	-6.895566e-002	0.0	5.048788e-001	-6.705339e-002	0.0	4.890394e-001	-6.804024e-002	0.0	1.249513e-001	-6.028257e-002	0.0	2.780447e-002	-3.325805e-002	0.0	3.947663e-001	-7.232395e-002	0.0	4.619013e-002	-4.112
[...]
POINT_DATA 5233
SCALARS Density float 1
LOOKUP_TABLE default
1.18582762672352e+00	1.16438840001480e+00	1.15402602424710e+00	1.14711268344673e+00	1.14135723752807e+00	1.13427153918622e+00	1.12264259809921e+00	1.10466374340786e+00	1.07949710037934e+00	1.04792098709785e+00	1.01174295724715e+00	9.76330459633802e-01	9.51828637098392e-01	9.45358036170538e-01	9.56120597983451e-01	9.78150836950884e-01	1.00468100665346e+00	1.03050936475394e+00	1.05266094679304e+00	1.06963972724869e+00	1.08080733588315e+00	1.08627561030613e+00	1.08667515613282e+00	1.08288871317789e+00	1.07569611641629e+00	1.06576279074180e+00	1.05354084270646e+00	1.03937210283944e+00	1.02376022838554e+00	1.00732988500264e+00	9.90439759584002e-01	9.72781856061375e-01	9.53724395953673e-01	9.34655331623250e-01	9.15591034053726e-01	8.97020132057829e-01	8.78359200268542e-01	8.60287964996877e-01	8.43689935516118e-01	8.14764952906077e-01	7.84321487223978e-01	7.63086032725414e-01	7.50288353307751e-01	7.46095816614637e-01	7.51981792877729e-01	7.67236950234507e-01	7.82153471704148e-01	8.02133233299897e-01	8.34179666850392e-01	8.68653558967879e-01	8.89587549583478e-01	8.90672508761796e-01	8.79532115845842e-01	8.76878099734191e-01	8.82812798219097e-01	8.88535748857531e-01	8.98530195908350e-01	9.09541191368596e-01	9.19042469796321e-01	9.26691396240446e-01	9.35361031153638e-01	9.40686313602729e-01	9.37084014846238e-01	9.30090354237965e-01	9.23787739443364e-01	9.17880710055195e-01	9.09589180959694e-01	8.97131344412590e-01	8.83999214570981e-01	8.73931806838830e-01	8.66141977883891e-01	8.58822324105941e-01	8.51110048878123e-01	8.42815969585245e-01	8.34588025095666e-01	8.27162094433657e-01	8.21420551489740e-01	8.17724569745002e-01	8.15777206910075e-01	8.15336563283810e-01	8.16446851199729e-01	8.19262799201006e-01	8.24105047565438e-01	8.31221725185937e-01	8.41004288072625e-01	8.53971924828633e-01	8.70534282117396e-01	8.91257303296038e-01	9.16875628268652e-01	9.47940586548951e-01	9.85304404442875e-01	1.02948341867238e+00	1.08007894530219e+00	1.13622037500656e+00	1.19542537774097e+00	1.25322748188316e+00	1.30102303665941e+00	1.33946780997724e+00	1.34987790521160e+00	1.34211399093452e+00	1.33729973697914e+00	1.31163819031788e+00	1.25582717391550e+00	1.20403682839135e+00	1.15180872212286e+00	1.10297567315238e+00	1.05879817629897e+00	1.01950183212177e+00	9.84656542510832e-01	9.54035983494835e-01	9.27049953729197e-01	9.03004757237479e-01	8.81589595442537e-01	8.62327006386776e-01	8.44914805164919e-01	8.29160147451205e-01	8.14702122692234e-01	8.01191467126779e-01	7.88475924191797e-01	7.76430947734312e-01	7.65089033233410e-01	7.54492201270022e-01	7.44533595909140e-01	7.34927319502735e-01	7.25495514735685e-01	7.16324528477929e-01	7.07721344127606e-01	6.99627884205691e-01	6.91816072917153e-01	6.84084458627568e-01	6.76581105729457e-01	6.69498499934763e-01	6.63006162832145e-01	6.57046421538848e-01	6.51552978530404e-01	6.46395045261728e-01	6.41507823695309e-01	6.36908924709624e-01	6.32517005737108e-01	6.28338055566313e-01	6.24351712808677e-01	6.20712150367081e-01	6.16953593788366e-01	6.12041941244181e-01	6.06350553680593e-01	6.01410014343019e-01	5.98165706687751e-01	5.95576123120745e-01	5.85641866858948e-01	5.66638196828738e-01	5.58908566675624e-01	5.79923493566532e-01	6.45889165731184e-01	7.75567212752955e-01	9.22863902300054e-01	1.01146846826741e+00	1.02661699287261e+00	1.00433425652011e+00	9.90289572543303e-01	9.88056089826245e-01	9.96898123552852e-01	1.01161345074451e+00	1.00108489116551e+00	9.78607370428343e-01	9.73116151929992e-01	9.76883916056226e-01	9.80417132113575e-01	9.82906633388176e-01	9.82157164056448e-01	9.81118246022312e-01	9.80814157628105e-01	9.83302103671252e-01	9.87466043281362e-01	9.90295445193976e-01	9.93175709139444e-01	9.97225437532926e-01	1.00281458377300e+00	1.01038377565921e+00	1.02058101922759e+00	1.03403040600457e+00	1.05081671837537e+00	1.07029850212312e+00	1.09088906383350e+00	1.11033651668716e+00	1.12594132149953e+00	1.13499758311786e+00	1.13548901929834e+00	1.12731188159721e+00	1.11265962441750e+00	1.09512749299480e+00	1.07884862634226e+00	1.06791649792886e+00	1.06531930622494e+00	1.07157708694193e+00	1.08444505581817e+00	1.10104019614073e+00	1.11896313580793e+00	1.13839856984203e+00	1.15796614915668e+00	1.15576316821857e+00	9.99015120213926e-01	9.99752299530638e-01	9.99847873210422e-01	9.99757530901385e-01	9.99705853787946e-01	9.99638297000569e-01	9.99554847666250e-01	9.99447504830650e-01	9.99328486013772e-01	9.99247589182301e-01	9.99208602137947e-01	9.99267562646239e-01	9.99402451650692e-01	9.99643776454524e-01	9.99843129557440e-01	1.00000087468261e+00	1.00008739887649e+00	1.00013957890230e+00	1.00016925090296e+00	1.00018210326848e+00	1.00018776926679e+00	1.00018928050422e+00	1.00019028357146e+00	1.00019456286769e+00	1.00019814022264e+00	1.00020524667148e+00	1.00021872479437e+00	1.00023597951953e+00	1.00026079416469e+00	1.00029711724675e+00	1.00033771235370e+00	1.00040174779939e+00	1.00046196972827e+00	1.00056008813124e+00	1.00064460367964e+00	1.00073918258444e+00	1.00082840042956e+00	1.00084842061085e+00	1.00084193199206e+00	1.00076995430305e+00	1.00069632883404e+00	1.00059387105061e+00	1.00049748192520e+00	1.00040177655433e+00	1.00031700309728e+00	1.00020750130868e+00	1.00011638094139e+00	1.00015289497558e+00	9.99469958314184e-01	9.98530652659102e-01	8.47344529378980e-01	8.41481594083595e-01	6.07424876874190e-01	1.01427006661779e+00	9.06195240612647e-01	1.16546637812256e+00	1.15645963355708e+00	9.83637306493650e-01	8.75616012983820e-01	1.29823300847887e+00	9.48400274683202e-01	9.86474599394092e-01	1.13119973914365e+00	1.12134870819294e+00	1.03607720971508e+00	9.12116960827764e-01	1.34040057119360e+00	1.10769896235341e+00	1.08927232708951e+00	1.32277281533939e+00	8.05292438890021e-01	1.04307944508199e+00	1.01472373820640e+00	6.32158073864010e-01	1.06479961225143e+00	6.68322011679574e-01	1.07679527366568e+00	1.07490774620169e+00	1.07476893696546e+00	8.32960986737579e-01	1.05453707370459e+00	1.34547106656289e+00	9.78813181613354e-01	1.01819111395041e+00	1.00647144938479e+00	8.82848519758955e-01	1.07222971354359e+00	9.67842999702395e-01	1.06599961845478e+00	1.00879749772780e+00	8.50804332423315e-01	1.06702045814454e+00	9.66436792410809e-01	1.14646932330890e+00	7.53932869186495e-01	8.77541926275277e-01	7.95277650196874e-01	8.98546976931620e-01	8.58759988710965e-01	8.87485965147695e-01	8.30908677842340e-01	9.38682695616529e-01	8.94099558874759e-01	8.72663112773463e-01	8.87335562451767e-01	9.40813947705757e-01	9.24018093106665e-01	9.12333146832175e-01	9.33357749193205e-01	9.97401476205788e-01	8.43286351019298e-01	8.71602800589002e-01	8.29027351235382e-01	8.26366878139292e-01	7.65856329547285e-01	8.58151314818809e-01	7.62602031838351e-01	1.07786115911328e+00	9.69897376268788e-01	1.13900067083247e+00	1.14514362179944e+00	1.00163553208814e+00	1.03788993529377e+00	9.67286091675074e-01	1.03853562201513e+00	1.25646606494808e+00	1.05497071533068e+00	9.14979866325998e-01	7.81518259566333e-01	9.30355055615750e-01	9.99439722364075e-01	8.27590485174527e-01	8.90531291817012e-01	7.53778762114047e-01	8.60506774923021e-01	8.58453088729425e-01	1.19664142036445e+00	1.04828917924861e+00	9.15117836733805e-01	8.64923834602723e-01	1.19777701402905e+00	9.04307562041920e-01	8.26889582106976e-01	9.40318176731626e-01	9.21160023904449e-01	8.88282809100194e-01	8.94398695765099e-01	1.33063518931152e+00	1.28994554623275e+00	6.02148209592816e-01	1.34429216720317e+00	9.42767343917215e-01	8.57269976033304e-01	8.95515638207949e-01	7.62769845961463e-01	6.13623386129572e-01	1.11254965370563e+00	5.62522600867307e-01	5.97177891186453e-01	1.09962072775788e+00	1.11979102913617e+00	1.02070546456053e+00	5.78028641662981e-01	6.03311766092049e-01	6.24144414887261e-01	1.07931595140016e+00	1.04601727195809e+00	8.11381815169505e-01	1.08785369555233e+00	1.12299245576137e+00	1.11005709062922e+00	7.85495525534385e-01	8.40761664433741e-01	6.51123669010643e-01	6.62213357528718e-01	7.14320096514815e-01	6.41164236831062e-01	6.00186217558778e-01	6.19493721397708e-01	7.32477973797641e-01	7.52360515212022e-01	9.93024398038065e-01	6.97751344650192e-01	6.82105665431241e-01	9.88756505944869e-01	8.60317132429525e-01	9.81124185691632e-01	9.72388754189632e-01	9.83436791385176e-01	9.85500703467827e-01	9.96143961393896e-01	9.89698579860113e-01	1.03206490113066e+00	1.00507537484526e+00	1.11960442392065e+00	1.06213353453776e+00	1.11119534602896e+00	9.99925909385939e-01	1.01186209104197e+00	9.84961854057710e-01	9.93371312245895e-01	9.84643854073321e-01	9.84512031489725e-01	9.88197739331118e-01	9.76904986397524e-01	9.90283861075509e-01	1.00849923931860e+00	6.97890801718799e-01	1.01660904644104e+00	6.89780110368678e-01	6.74968214664458e-01	7.23148091008636e-01	7.05950163666692e-01	8.75403637070878e-01	7.42308487564880e-01	1.03634308896916e+00	9.17884510569843e-01	8.79436537769828e-01	1.16248274988887e+00	9.82727995964467e-01	1.02945997756723e+00	9.31127382238872e-01	8.20938196659779e-01	1.21019926122612e+00	9.70527328957653e-01	1.11704838977051e+00	7.98053499483740e-01	8.25543667519364e-01	6.56496070656929e-01	7.73749890486630e-01	1.07880128875857e+00	1.07490847098828e+00	6.46017296557733e-01	1.07742799147123e+00	1.08560350954592e+00	6.36595272003770e-01	6.28001694432754e-01	1.09595032977449e+00	1.17098402875751e+00	1.12901673095208e+00	1.14458574943724e+00	7.79759486198767e-01	8.90462718693910e-01	1.09790014257920e+00	5.59710982103077e-01	1.24668092680914e+00	1.09501416538630e+00	8.38953833096469e-01	8.36367944310627e-01	9.26825993817277e-01	8.37249538645034e-01	1.27878238443990e+00	1.31274390956670e+00	9.29954917211379e-01	8.92281149790144e-01	1.04170742140574e+00	1.14258088749881e+00	9.36434972102809e-01	8.75372033974730e-01	9.92397349552818e-01	1.10836899374180e+00	9.35948469742980e-01	1.06150696230869e+00	1.04451357165505e+00	8.42774538063639e-01	1.30109509044605e+00	8.86255285246211e-01	1.05760739065284e+00	9.93730713367682e-01	8.52619528175053e-01	9.09911185410713e-01	8.33023098576022e-01	8.86276301406310e-01	8.47743502191162e-01	9.01606119688164e-01	1.06236408091747e+00	1.00654208365389e+00	1.11956130313699e+00	1.01285171991635e+00	9.99951405517411e-01	9.99122694792696e-01	7.83875363713267e-01	1.01744118528990e+00	7.31546905886666e-01	1.01374948442794e+00	1.08274967376047e+00	6.41692320742468e-01	5.59462911315852e-01	1.11028621039331e+00	1.02149419446857e+00	1.08693647327789e+00	1.11082512062551e+00	1.08653697893189e+00	6.82116703759762e-01	6.46657345781092e-01	6.89367629083911e-01	7.95894759494884e-01	8.61643847210323e-01	8.77527121803867e-01	1.08125659266350e+00	7.50893218622150e-01	8.88514313998466e-01	1.10072535045798e+00	1.09511408505919e+00	1.03112530160656e+00	8.58861349577903e-01	1.18629228339066e+00	1.11847658127827e+00	1.10583174160225e+00	1.15981630257636e+00	1.24205927080131e+00	1.18703514275917e+00	1.33978992955073e+00	1.33792631800883e+00	1.01965524695474e+00	1.19824783393947e+00	8.64074150454681e-01	1.14592624321264e+00	1.12916030235692e+00	6.15620774378122e-01	7.94638610721145e-01	1.09382041472839e+00	1.06858539835340e+00	1.02207535619136e+00	1.11991994639941e+00	1.32803384487848e+00	8.82628503908728e-01	6.22351389636199e-01	1.05408674521935e+00	6.62914541692191e-01	1.06650440978454e+00	1.06731861949550e+00	8.54753413873571e-01	1.05366973097071e+00	1.02728202201055e+00	9.87659841091650e-01	9.56362985248248e-01	9.85650757159206e-01	1.01084416290990e+00	1.07590520198549e+00	8.41809271409490e-01	9.61008546954654e-01	9.77369087884342e-01	1.13745142789883e+00	9.00019937805999e-01	8.98834135595087e-01	8.77779809718865e-01	9.86059981563475e-01	8.92173027335514e-01	8.88273821279597e-01	9.27525416083644e-01	9.09016030528205e-01	1.01184048532764e+00	9.97564269292480e-01	8.46671777590208e-01	8.39590855001696e-01	7.81701187868930e-01	7.66957758947601e-01	1.03277680995539e+00	1.05525125696143e+00	9.26725811124405e-01	9.44176666582131e-01	8.38265668273159e-01	8.38939179267612e-01	7.66261020587229e-01	7.61935210340269e-01	8.91007793811686e-01	8.76088773013751e-01	1.09874815131494e+00	9.20783262064729e-01	9.11480537524212e-01	8.65068718104784e-01	8.70976699922696e-01	8.98477799359926e-01	9.10326024450916e-01	9.36997639766437e-01	9.41285782199215e-01	9.18198949179553e-01	1.33259487731820e+00	1.23079748964283e+00	9.08740250367049e-01	1.08256291634215e+00	5.77384309117197e-01	5.69084003688956e-01	5.93254630633590e-01	6.04123419766305e-01	1.09319152236700e+00	1.10719482254147e+00	1.06978935776695e+00	6.07229553694363e-01	6.10100424542593e-01	6.28512959643149e-01	1.05579440890068e+00	1.10510387130237e+00	8.52944337047532e-01	8.69986297340912e-01	6.75356313314088e-01	6.68919236010558e-01	7.40942859154630e-01	7.61586100617864e-01	7.72543868796025e-01	9.86336568119861e-01	9.82506564141799e-01	9.77031908823930e-01	9.86867509375594e-01	9.96302360237936e-01	1.04263966228895e+00	1.00756989246138e+00	1.00273604905393e+00	9.91116568834208e-01	9.87229333266419e-01	9.88168675303344e-01	9.85088246367050e-01	9.76944662861560e-01	1.00221319545481e+00	9.88152600205607e-01	9.90732144933631e-01	7.80645177227726e-01	6.43634172942554e-01	1.00238050079481e+00	1.02868816574144e+00	6.96965183254081e-01	7.05152173970434e-01	7.13686010101488e-01	7.22577953545432e-01	1.04572628720283e+00	9.31089052510677e-01	9.55891624032220e-01	1.02025453813856e+00	1.03312617619873e+00	8.42877674261505e-01	8.13197797254334e-01	1.20166109755366e+00	9.83093476290959e-01	8.08778369685730e-01	8.22551531771418e-01	6.51748559356263e-01	6.57172051974842e-01	6.32941356433143e-01	6.37170957206909e-01	1.09581375677310e+00	1.08356710887187e+00	7.79058620787858e-01	8.01213943735882e-01	9.30638132545777e-01	1.27018765296927e+00	9.23661717733159e-01	1.30680858455696e+00	8.98245723045556e-01	9.33268519499249e-01	1.00002696648247e+00	8.10116165144934e-01	1.03272834941604e+00	1.08865056752261e+00	1.08609471265055e+00	1.10104400161812e+00	1.19344493325233e+00	1.09445440056099e+00	1.13134729236897e+00	1.14993736795920e+00	1.13612188157831e+00	1.17735889444809e+00	1.03202691629118e+00	1.31529540665089e+00	8.56471756750786e-01	1.02152138111598e+00	1.10986007049305e+00	8.71055198309763e-01	1.15649710211717e+00	1.17972966074792e+00	9.08890260260921e-01	1.25201605130071e+00	9.25008256267852e-01	1.06600559049705e+00	1.05992180605210e+00	1.14100631992173e+00	9.32097748530252e-01	1.05705124602545e+00	8.92169227701337e-01	1.12000301782967e+00	1.10291122659915e+00	1.08931205752299e+00	5.66581270395036e-01	1.09922215038272e+00	9.92163243964931e-01	1.10220172158191e+00	5.65151295199765e-01	6.76312407606250e-01	6.52597861681323e-01	7.50837741706074e-01	8.65711757799881e-01	1.14240804357967e+00	1.27812235376293e+00	1.25850775668641e+00	1.05370647092663e+00	1.29229728025818e+00	1.01641896497619e+00	8.62404708628757e-01	1.33290502046147e+00	8.61072039846993e-01	8.98303998346252e-01	1.00100313478494e+00	1.12107013150556e+00	1.00203668440282e+00	9.88992866823557e-01	1.01259606838591e+00	1.08642652441949e+00	1.10171626714728e+00	1.03047003388324e+00	1.02218515338543e+00	6.58058652957949e-01	6.69841806767035e-01	6.97503209996037e-01	8.07480852216518e-01	8.60532378489356e-01	8.77836836560682e-01	8.83651508109624e-01	1.08664787941556e+00	7.60616915460428e-01	1.09359726099360e+00	1.11064489148255e+00	1.15698783723792e+00	1.22881370956644e+00	1.21730060541881e+00	1.32215065686924e+00	9.72647542586133e-01	1.17020179529830e+00	1.16118235839523e+00	1.03260514378648e+00	1.09820626609020e+00	9.93045823283032e-01	8.86368186517898e-01	6.25530265719660e-01	1.04441252222899e+00	1.05176607114090e+00	1.06005824384484e+00	1.05726676822051e+00	8.80485464047501e-01	8.70323775130748e-01	1.05149644080846e+00	1.04312883307463e+00	1.00061123518089e+00	1.00501943325709e+00	1.08434155005220e+00	9.72588427579670e-01	9.86842559443102e-01	1.12804953657950e+00	9.06558174883874e-01	8.94394057971069e-01	8.93123356703076e-01	8.88959775461068e-01	9.47982260318907e-01	1.01093936455793e+00	1.00317976423940e+00	8.52544317588054e-01	8.56470228115715e-01	7.96329048521727e-01	7.82178028985695e-01	1.05057536773953e+00	1.06814058433108e+00	9.41256108323269e-01	9.57279778174140e-01	8.52469412818760e-01	8.50145428424093e-01	8.50059478528830e-01	7.73029887683285e-01	7.74438402564879e-01	9.27010300671731e-01	9.08786351885005e-01	8.93250717680648e-01	9.25622149109403e-01	9.17524138142590e-01	9.08533357717264e-01	8.66320219213364e-01	8.71609030591328e-01	8.77078197226820e-01	8.93312184231285e-01	9.05152959314557e-01	9.39720196742504e-01	9.40002764360362e-01	9.14788525182629e-01	9.22203616302473e-01	5.85525050281988e-01	6.07492538771923e-01	1.09794499646173e+00	6.11776244789240e-01	6.14469038547234e-01	6.18803615029356e-01	6.32714734863548e-01	1.06260596448193e+00	8.83070898262009e-01	9.01936024772442e-01	6.82959862071543e-01	6.90154286423967e-01	7.71204675886676e-01	7.83083666000877e-01	7.95256692967848e-01	9.82656902896076e-01	1.05107621734315e+00	1.04012172349205e+00	1.01534364813829e+00	1.00973626561231e+00	1.00541813877809e+00	9.98289045886199e-01	9.92746024403995e-01	9.89204907875600e-01	9.89214862216762e-01	9.89138790963813e-01	9.86778387314582e-01	9.76186102990512e-01	9.86305376039201e-01	1.01355618294282e+00	9.89894866986738e-01	7.04096832802218e-01	6.06741215568629e-01	9.93242438586836e-01	1.01447835854355e+00	1.03490248360051e+00	7.05331766375369e-01	7.13388804123658e-01	7.22229531539279e-01	7.31504242758622e-01	7.41239010378455e-01	9.44055414175924e-01	9.68262911528732e-01	1.01257380590029e+00	1.02457278508538e+00	1.03522767293052e+00	8.66176832523107e-01	8.32758389970058e-01	9.94868784234553e-01	1.02316216963125e+00	8.20469479909678e-01	8.34569764564330e-01	8.49614462910383e-01	6.63830040550612e-01	6.38674806233838e-01	6.43154751449599e-01	6.47660823957173e-01	1.09341920539225e+00	1.08477598118916e+00	1.07419638256501e+00	7.83496586664836e-01	8.00665041957404e-01	8.26894491694678e-01	9.21067529634033e-01	9.26769594116527e-01	1.28458647017984e+00	8.70420538230903e-01	1.10554371129434e+00	1.08796581602829e+00	8.09332514201558e-01	1.29597701455459e+00	1.14293435883196e+00	1.02776904669281e+00	1.02040854023627e+00	9.86922830882546e-01	1.09321630813134e+00	5.77007862774486e-01	1.25741097775317e+00	1.08958500556465e+00	1.17037453783977e+00	1.09412518033808e+00	1.09870382970551e+00	1.24047106250921e+00	9.88486826597625e-01	1.21420526319643e+00	1.15356377772494e+00	1.17252463464313e+00	1.00631617456470e+00	8.69953571996870e-01	1.04217491097745e+00	8.97802595355088e-01	8.77139957058156e-01	8.96924846480859e-01	9.36047807889841e-01	1.08775805094743e+00	7.81587469432597e-01	1.09281680628278e+00	1.08930528456686e+00	9.90935512237508e-01	7.72479521843491e-01	6.92727762104800e-01	1.10121812078476e+00	8.95773196456879e-01	1.05139475759963e+00	1.11989133552833e+00	1.08942935777615e+00	1.12724126127114e+00	1.04888939974664e+00	1.07200469120324e+00	9.08418400842864e-01	1.20310395757867e+00	9.24380065899684e-01	9.38710649759291e-01	1.10441398764537e+00	1.11095965583223e+00	1.13759705850457e+00	1.00400379255048e+00	5.66096423203829e-01	6.72206675624563e-01	1.27084429469947e+00	1.12040224432101e+00	1.00001352071292e+00	1.03052744177958e+00	6.66394044514729e-01	6.78878763369248e-01	6.85377077735542e-01	8.80091660177048e-01	8.95331671651762e-01	1.08956126913388e+00	1.15152747959721e+00	1.18349288228106e+00	1.23347707319086e+00	1.30195342621216e+00	1.01344868970171e+00	1.03513713184185e+00	1.08993383561786e+00	9.50794951549423e-01	1.04274481021558e+00	1.04819562185415e+00	1.05270854705932e+00	1.05132058007997e+00	8.96526468641779e-01	8.85812920790902e-01	1.04789581616650e+00	1.04236480804865e+00	1.03542527786400e+00	1.01585089104711e+00	1.02355021255971e+00	9.81845657169351e-01	9.94109222756952e-01	1.11965235378324e+00	9.08415693105397e-01	9.05489467577436e-01	8.95029983184924e-01	8.91738169549087e-01	1.01498273394334e+00	1.01307999836864e+00	8.64082924060846e-01	8.66313259768373e-01	7.98749090658302e-01	1.06318159316113e+00	1.07714780048633e+00	9.54225423535139e-01	9.70007542289852e-01	8.65403297273491e-01	8.62551514919356e-01	8.62437213191694e-01	7.85756122