# vtk DataFile Version 3.0
vtk output
ASCII
DATASET UNSTRUCTURED_GRID
POINTS 5233 float
9.997500e-001	-3.632369e-005	0.0	9.990000e-001	-1.449208e-004	0.0	9.977600e-001	-3.214652e-004	0.0	9.960200e-001	-5.573617e-004	0.0	9.937800e-001	-8.297646e-004	0.0	9.910500e-001	-1.099158e-003	0.0	9.878400e-001	-1.315750e-003	0.0	9.841300e-001	-1.434329e-003	0.0	9.799500e-001	-1.431956e-003	0.0	9.752800e-001	-1.331843e-003	0.0	9.701500e-001	-1.210328e-003	0.0	9.645400e-001	-1.182853e-003	0.0	9.584700e-001	-1.374803e-003	0.0	9.519400e-001	-1.884240e-003	0.0	9.449600e-001	-2.756040e-003	0.0	9.375400e-001	-3.976743e-003	0.0	9.296900e-001	-5.489400e-003	0.0	9.214000e-001	-7.222226e-003	0.0	9.127000e-001	-9.098058e-003	0.0	9.035800e-001	-1.106380e-002	0.0	8.940600e-001	-1.307864e-002	0.0	8.841500e-001	-1.511878e-002	0.0	8.738500e-001	-1.717102e-002	0.0	8.631800e-001	-1.922122e-002	0.0	8.521600e-001	-2.125566e-002	0.0	8.407700e-001	-2.326694e-002	0.0	8.290500e-001	-2.523641e-002	0.0	8.170100e-001	-2.715168e-002	0.0	8.046400e-001	-2.900474e-002	0.0	7.919700e-001	-3.078344e-002	0.0	7.790100e-001	-3.248109e-002	0.0	7.657800e-001	-3.409196e-002	0.0	7.522800e-001	-3.561469e-002	0.0	7.385200e-001	-3.704819e-002	0.0	7.245300e-001	-3.839094e-002	0.0	7.103200e-001	-3.964489e-002	0.0	6.958900e-001	-4.081375e-002	0.0	6.812700e-001	-4.189963e-002	0.0	6.664700e-001	-4.290709e-002	0.0	6.515000e-001	-4.384112e-002	0.0	6.363800e-001	-4.470637e-002	0.0	6.211300e-001	-4.550766e-002	0.0	6.057600e-001	-4.625024e-002	0.0	5.902800e-001	-4.693895e-002	0.0	5.747100e-001	-4.757769e-002	0.0	5.590600e-001	-4.817018e-002	0.0	5.433600e-001	-4.871877e-002	0.0	5.276100e-001	-4.922620e-002	0.0	5.118400e-001	-4.969349e-002	0.0	4.960500e-001	-5.012198e-002	0.0	4.802700e-001	-5.051157e-002	0.0	4.645100e-001	-5.086223e-002	0.0	4.487800e-001	-5.117350e-002	0.0	4.331100e-001	-5.144424e-002	0.0	4.175000e-001	-5.167369e-002	0.0	4.019700e-001	-5.186063e-002	0.0	3.865400e-001	-5.200388e-002	0.0	3.712300e-001	-5.210238e-002	0.0	3.560400e-001	-5.215529e-002	0.0	3.409900e-001	-5.216176e-002	0.0	3.261100e-001	-5.212123e-002	0.0	3.114000e-001	-5.203328e-002	0.0	2.968700e-001	-5.189755e-002	0.0	2.825500e-001	-5.171400e-002	0.0	2.684500e-001	-5.148251e-002	0.0	2.545700e-001	-5.120264e-002	0.0	2.409400e-001	-5.087445e-002	0.0	2.275700e-001	-5.049744e-002	0.0	2.144700e-001	-5.007083e-002	0.0	2.016600e-001	-4.959383e-002	0.0	1.891400e-001	-4.906452e-002	0.0	1.769300e-001	-4.848126e-002	0.0	1.650400e-001	-4.784154e-002	0.0	1.534900e-001	-4.714296e-002	0.0	1.422900e-001	-4.638216e-002	0.0	1.314400e-001	-4.555449e-002	0.0	1.209500e-001	-4.465543e-002	0.0	1.108500e-001	-4.368209e-002	0.0	1.011300e-001	-4.262772e-002	0.0	9.181000e-002	-4.148831e-002	0.0	8.290000e-002	-4.025905e-002	0.0	7.440000e-002	-3.893374e-002	0.0	6.633000e-002	-3.750964e-002	0.0	5.869000e-002	-3.598136e-002	0.0	5.149000e-002	-3.434591e-002	0.0	4.474000e-002	-3.260155e-002	0.0	3.844000e-002	-3.074502e-002	0.0	3.260000e-002	-2.877699e-002	0.0	2.723000e-002	-2.670035e-002	0.0	2.232000e-002	-2.451129e-002	0.0	1.790000e-002	-2.222584e-002	0.0	1.395000e-002	-1.983801e-002	0.0	1.049000e-002	-1.736517e-002	0.0	7.520000e-003	-1.481656e-002	0.0	5.040000e-003	-1.220248e-002	0.0	3.050000e-003	-9.533092e-003	0.0	1.560000e-003	-6.836362e-003	0.0	5.600000e-004	-4.103532e-003	0.0	6.000000e-005	-1.348679e-003	0.0	0.000000e+000	0.000000e+000	0.0	6.000000e-005	1.322122e-003	0.0	5.600000e-004	3.924283e-003	0.0	1.560000e-003	6.425205e-003	0.0	3.050000e-003	8.850866e-003	0.0	5.040000e-003	1.123729e-002	0.0	7.520000e-003	1.358155e-002	0.0	1.049000e-002	1.589209e-002	0.0	1.395000e-002	1.817325e-002	0.0	1.790000e-002	2.042671e-002	0.0	2.232000e-002	2.264277e-002	0.0	2.723000e-002	2.483100e-002	0.0	3.260000e-002	2.697633e-002	0.0	3.844000e-002	2.908078e-002	0.0	4.474000e-002	3.113726e-002	0.0	5.149000e-002	3.313882e-002	0.0	5.869000e-002	3.508120e-002	0.0	6.633000e-002	3.695707e-002	0.0	7.440000e-002	3.875947e-002	0.0	8.290000e-002	4.048382e-002	0.0	9.181000e-002	4.212185e-002	0.0	1.011300e-001	4.366979e-002	0.0	1.108500e-001	4.512246e-002	0.0	1.209500e-001	4.647420e-002	0.0	1.314400e-001	4.772405e-002	0.0	1.422900e-001	4.886679e-002	0.0	1.534900e-001	4.990075e-002	0.0	1.650400e-001	5.082571e-002	0.0	1.769300e-001	5.164103e-002	0.0	1.891400e-001	5.234622e-002	0.0	2.016600e-001	5.294218e-002	0.0	2.144700e-001	5.342998e-002	0.0	2.275700e-001	5.381195e-002	0.0	2.409400e-001	5.409008e-002	0.0	2.545700e-001	5.426706e-002	0.0	2.684500e-001	5.434580e-002	0.0	2.825500e-001	5.432950e-002	0.0	2.968700e-001	5.422169e-002	0.0	3.114000e-001	5.402592e-002	0.0	3.261100e-001	5.374630e-002	0.0	3.409900e-001	5.338692e-002	0.0	3.560400e-001	5.295163e-002	0.0	3.712300e-001	5.244528e-002	0.0	3.865400e-001	5.187270e-002	0.0	4.019700e-001	5.123808e-002	0.0	4.175000e-001	5.054641e-002	0.0	4.331100e-001	4.980278e-002	0.0	4.487800e-001	4.901231e-002	0.0	4.645100e-001	4.817893e-002	0.0	4.802700e-001	4.730791e-002	0.0	4.960500e-001	4.640315e-002	0.0	5.118400e-001	4.546804e-002	0.0	5.276100e-001	4.450663e-002	0.0	5.433600e-001	4.352050e-002	0.0	5.590600e-001	4.251236e-002	0.0	5.747100e-001	4.148224e-002	0.0	5.902800e-001	4.043134e-002	0.0	6.057600e-001	3.935880e-002	0.0	6.211300e-001	3.826376e-002	0.0	6.363800e-001	3.714415e-002	0.0	6.515000e-001	3.599745e-002	0.0	6.664700e-001	3.482177e-002	0.0	6.812700e-001	3.361545e-002	0.0	6.958900e-001	3.237652e-002	0.0	7.103200e-001	3.110387e-002	0.0	7.245300e-001	2.979948e-002	0.0	7.385200e-001	2.846440e-002	0.0	7.522800e-001	2.710261e-002	0.0	7.657800e-001	2.572255e-002	0.0	7.790100e-001	2.433330e-002	0.0	7.919700e-001	2.294545e-002	0.0	8.046400e-001	2.157409e-002	0.0	8.170100e-001	2.023536e-002	0.0	8.290500e-001	1.894915e-002	0.0	8.407700e-001	1.773218e-002	0.0	8.521600e-001	1.660408e-002	0.0	8.631800e-001	1.558733e-002	0.0	8.738500e-001	1.469784e-002	0.0	8.841500e-001	1.395273e-002	0.0	8.940600e-001	1.336269e-002	0.0	9.035800e-001	1.292566e-002	0.0	9.127000e-001	1.262188e-002	0.0	9.214000e-001	1.240660e-002	0.0	9.296900e-001	1.220627e-002	0.0	9.375400e-001	1.192610e-002	0.0	9.449600e-001	1.146469e-002	0.0	9.519400e-001	1.074203e-002	0.0	9.584700e-001	9.727669e-003	0.0	9.645400e-001	8.458398e-003	0.0	9.701500e-001	7.031288e-003	0.0	9.752800e-001	5.583692e-003	0.0	9.799500e-001	4.237614e-003	0.0	9.841300e-001	3.090750e-003	0.0	9.878400e-001	2.173235e-003	0.0	9.910500e-001	1.480450e-003	0.0	9.937800e-001	9.687657e-004	0.0	9.960200e-001	5.960311e-004	0.0	9.977600e-001	3.286507e-004	0.0	9.990000e-001	1.455773e-004	0.0	9.997500e-001	3.633410e-005	0.0	1.000000e+000	0.000000e+000	0.0	1.984229e+001	2.506660e+000	0.0	1.937166e+001	4.973800e+000	0.0	1.859553e+001	7.362490e+000	0.0	1.752613e+001	9.635070e+000	0.0	1.618034e+001	1.175571e+001	0.0	1.457937e+001	1.369094e+001	0.0	1.274848e+001	1.541027e+001	0.0	1.071654e+001	1.688656e+001	0.0	8.515590e+000	1.809654e+001	0.0	6.180340e+000	1.902113e+001	0.0	3.747630e+000	1.964575e+001	0.0	1.255810e+000	1.996053e+001	0.0	-1.255810e+000	1.996053e+001	0.0	-3.747630e+000	1.964574e+001	0.0	-6.180340e+000	1.902113e+001	0.0	-8.515590e+000	1.809654e+001	0.0	-1.071654e+001	1.688656e+001	0.0	-1.274848e+001	1.541026e+001	0.0	-1.457937e+001	1.369094e+001	0.0	-1.618034e+001	1.175570e+001	0.0	-1.752613e+001	9.635070e+000	0.0	-1.859553e+001	7.362490e+000	0.0	-1.937166e+001	4.973800e+000	0.0	-1.984229e+001	2.506660e+000	0.0	-2.000000e+001	0.000000e+000	0.0	-1.984229e+001	-2.506670e+000	0.0	-1.937166e+001	-4.973800e+000	0.0	-1.859553e+001	-7.362490e+000	0.0	-1.752613e+001	-9.635080e+000	0.0	-1.618034e+001	-1.175571e+001	0.0	-1.457937e+001	-1.369094e+001	0.0	-1.274848e+001	-1.541027e+001	0.0	-1.071653e+001	-1.688656e+001	0.0	-8.515580e+000	-1.809654e+001	0.0	-6.180340e+000	-1.902113e+001	0.0	-3.747620e+000	-1.964575e+001	0.0	-1.255810e+000	-1.996053e+001	0.0	1.255810e+000	-1.996053e+001	0.0	3.747630e+000	-1.964574e+001	0.0	6.180340e+000	-1.902113e+001	0.0	8.515590e+000	-1.809654e+001	0.0	1.071654e+001	-1.688656e+001	0.0	1.274848e+001	-1.541026e+001	0.0	1.457937e+001	-1.369094e+001	0.0	1.618034e+001	-1.175570e+001	0.0	1.752614e+001	-9.635070e+000	0.0	1.859553e+001	-7.362490e+000	0.0	1.937166e+001	-4.973790e+000	0.0	1.984229e+001	-2.506660e+000	0.0	2.000000e+001	0.000000e+000	0.0	6.094494e-002	-4.370185e-002	0.0	6.600692e-001	-5.691861e-002	0.0	4.259596e-001	6.452845e-002	0.0	6.897442e-001	4.636661e-002	0.0	3.791200e-001	-6.617281e-002	0.0	9.994591e-001	-7.121262e-004	0.0	9.985421e-001	-1.292555e-003	0.0	7.738614e-001	-4.506154e-002	0.0	6.897794e-001	-5.453121e-002	0.0	-1.325043e-003	6.058255e-003	0.0	7.467889e-001	-4.861528e-002	0.0	5.835250e-001	5.526324e-002	0.0	9.927283e-001	-3.370029e-003	0.0	9.897912e-001	-4.052302e-003	0.0	5.990693e-001	5.410763e-002	0.0	7.187287e-001	-5.176669e-002	0.0	-1.535326e-003	6.996201e-004	0.0	9.863510e-001	-4.690312e-003	0.0	9.824210e-001	-5.256100e-003	0.0	-1.369909e-003	-6.397733e-003	0.0	6.449706e-001	-5.798143e-002	0.0	8.245552e-001	-3.688528e-002	0.0	7.998144e-001	-4.114282e-002	0.0	3.488605e-001	6.698236e-002	0.0	8.479508e-001	-3.239304e-002	0.0	2.475378e-001	6.665959e-002	0.0	8.699384e-001	-2.774963e-002	0.0	1.008419e-002	2.023297e-002	0.0	8.904065e-001	-2.307509e-002	0.0	7.725993e-002	-4.738715e-002	0.0	9.092811e-001	-1.850997e-002	0.0	-1.852616e-003	-3.156835e-003	0.0	9.419745e-001	-1.074013e-002	0.0	9.264879e-001	-1.427762e-002	0.0	1.799785e-002	-2.730588e-002	0.0	4.256889e-001	-6.592223e-002	0.0	8.591301e-001	-3.008061e-002	0.0	9.557399e-001	-8.243117e-003	0.0	9.780006e-001	-5.769501e-003	0.0	9.677698e-001	-6.754008e-003	0.0	1.585420e-001	-5.821113e-002	0.0	9.000499e-001	-2.076793e-002	0.0	7.604593e-001	-4.688726e-002	0.0	9.971108e-001	-1.999947e-003	0.0	5.988895e-001	-6.069926e-002	0.0	4.413760e-001	-6.572230e-002	0.0	5.361715e-001	-6.337751e-002	0.0	4.729177e-001	-6.515644e-002	0.0	5.045509e-001	-6.437437e-002	0.0	4.887220e-001	-6.479116e-002	0.0	1.252346e-001	-5.480860e-002	0.0	2.793723e-002	-3.255896e-002	0.0	3.945487e-001	-6.614928e-002	0.0	4.637982e-002	-3.958
[...]
POINT_DATA 5233

SCALARS Density float 1
LOOKUP_TABLE default
1.182613e+000	1.154420e+000	1.132127e+000	1.110399e+000	1.090002e+000	1.074515e+000	1.068923e+000	1.075989e+000	1.093670e+000	1.116636e+000	1.138891e+000	1.155403e+000	1.163927e+000	1.164306e+000	1.157501e+000	1.145144e+000	1.129117e+000	1.111312e+000	1.093241e+000	1.075960e+000	1.059874e+000	1.044910e+000	1.030732e+000	1.017121e+000	1.003889e+000	9.910517e-001	9.786949e-001	9.670057e-001	9.561398e-001	9.462697e-001	9.375387e-001	9.299684e-001	9.235302e-001	9.182567e-001	9.141501e-001	9.112175e-001	9.093300e-001	9.083604e-001	9.081222e-001	9.084714e-001	9.092149e-001	9.102241e-001	9.113384e-001	9.124644e-001	9.134929e-001	9.143717e-001	9.150463e-001	9.155121e-001	9.157536e-001	9.157793e-001	9.155794e-001	9.151870e-001	9.146283e-001	9.139532e-001	9.131836e-001	9.123474e-001	9.114609e-001	9.105627e-001	9.096672e-001	9.087849e-001	9.079220e-001	9.070671e-001	9.062151e-001	9.053354e-001	9.044175e-001	9.034075e-001	9.022984e-001	9.010443e-001	8.996412e-001	8.980349e-001	8.962079e-001	8.941368e-001	8.919029e-001	8.895480e-001	8.871589e-001	8.847727e-001	8.826135e-001	8.810100e-001	8.802797e-001	8.807630e-001	8.828528e-001	8.868611e-001	8.931224e-001	9.018652e-001	9.133649e-001	9.279691e-001	9.458963e-001	9.674433e-001	9.930292e-001	1.022841e+000	1.057188e+000	1.096178e+000	1.139239e+000	1.185586e+000	1.233450e+000	1.280211e+000	1.318536e+000	1.347450e+000	1.349531e+000	1.334740e+000	1.324070e+000	1.285458e+000	1.208726e+000	1.143061e+000	1.083689e+000	1.033128e+000	9.919407e-001	9.585309e-001	9.306992e-001	9.069994e-001	8.862486e-001	8.675509e-001	8.505204e-001	8.346934e-001	8.198573e-001	8.059430e-001	7.927093e-001	7.799077e-001	7.674765e-001	7.554219e-001	7.439272e-001	7.332025e-001	7.232462e-001	7.137478e-001	7.044627e-001	6.954589e-001	6.871649e-001	6.796401e-001	6.726646e-001	6.659497e-001	6.595726e-001	6.537385e-001	6.486613e-001	6.443143e-001	6.406159e-001	6.374044e-001	6.345560e-001	6.320093e-001	6.296486e-001	6.274674e-001	6.254803e-001	6.238154e-001	6.225617e-001	6.216060e-001	6.207542e-001	6.199735e-001	6.192994e-001	6.188921e-001	6.187472e-001	6.189325e-001	6.191586e-001	6.199565e-001	6.217376e-001	6.252243e-001	6.243609e-001	6.181095e-001	6.522581e-001	8.110296e-001	9.736411e-001	9.933967e-001	9.830849e-001	9.788035e-001	9.799970e-001	9.807309e-001	9.815310e-001	9.835123e-001	9.865458e-001	9.904341e-001	9.950164e-001	1.000222e+000	1.005859e+000	1.011704e+000	1.017552e+000	1.023134e+000	1.028170e+000	1.032295e+000	1.035015e+000	1.035690e+000	1.033461e+000	1.027233e+000	1.015840e+000	9.982324e-001	9.743438e-001	9.470585e-001	9.232182e-001	9.123805e-001	9.244385e-001	9.606536e-001	1.006979e+000	1.048491e+000	1.081825e+000	1.106410e+000	1.122470e+000	1.132041e+000	1.137438e+000	1.141899e+000	1.147480e+000	1.156848e+000	1.170742e+000	1.161444e+000	9.989521e-001	9.996455e-001	9.996774e-001	9.995195e-001	9.993955e-001	9.992429e-001	9.990647e-001	9.988459e-001	9.986105e-001	9.984488e-001	9.983615e-001	9.984484e-001	9.986657e-001	9.990828e-001	9.994350e-001	9.997283e-001	9.999000e-001	1.000013e+000	1.000091e+000	1.000131e+000	1.000158e+000	1.000172e+000	1.000184e+000	1.000196e+000	1.000207e+000	1.000220e+000	1.000242e+000	1.000270e+000	1.000308e+000	1.000366e+000	1.000432e+000	1.000542e+000	1.000652e+000	1.000843e+000	1.001029e+000	1.001267e+000	1.001527e+000	1.001647e+000	1.001694e+000	1.001574e+000	1.001431e+000	1.001218e+000	1.001021e+000	1.000827e+000	1.000653e+000	1.000452e+000	1.000295e+000	1.000279e+000	9.995058e-001	9.984828e-001	9.141496e-001	9.119587e-001	6.228209e-001	9.823207e-001	9.131764e-001	1.161275e+000	1.144180e+000	9.390588e-001	9.130734e-001	1.269813e+000	9.260221e-001	6.218783e-001	1.092519e+000	1.083647e+000	6.250070e-001	9.174202e-001	1.331531e+000	1.083138e+000	1.091404e+000	1.331465e+000	9.122256e-001	9.774334e-001	9.563392e-001	6.305770e-001	1.001164e+000	6.534044e-001	1.026605e+000	1.016398e+000	1.053791e+000	8.980094e-001	1.083667e+000	1.346806e+000	1.140473e+000	1.114923e+000	1.069075e+000	9.155498e-001	1.013709e+000	1.149886e+000	1.105727e+000	1.136387e+000	8.958981e-001	1.068371e+000	9.320189e-001	1.124793e+000	9.145356e-001	9.162242e-001	9.173078e-001	9.172712e-001	9.176768e-001	9.175736e-001	8.908911e-001	1.006833e+000	9.140066e-001	9.412956e-001	9.148022e-001	9.099498e-001	9.115278e-001	9.814028e-001	9.084063e-001	1.129056e+000	8.941045e-001	9.010440e-001	8.934487e-001	8.897234e-001	9.162030e-001	8.976939e-001	9.136441e-001	1.039937e+000	1.036028e+000	1.107264e+000	1.187545e+000	9.514935e-001	1.099413e+000	1.147800e+000	1.122067e+000	1.215012e+000	9.890474e-001	9.058477e-001	9.168478e-001	9.211506e-001	9.471685e-001	8.898741e-001	9.037124e-001	9.154201e-001	9.121926e-001	9.262337e-001	1.230063e+000	1.105724e+000	9.123465e-001	8.994504e-001	1.198016e+000	9.048413e-001	8.908063e-001	9.091756e-001	9.067701e-001	9.168098e-001	9.147720e-001	1.314123e+000	1.306536e+000	6.215284e-001	1.339605e+000	9.030270e-001	8.315215e-001	8.642330e-001	7.410675e-001	6.238961e-001	1.140685e+000	6.208564e-001	6.205486e-001	1.035445e+000	9.633460e-001	1.030348e+000	6.203858e-001	6.218501e-001	6.265788e-001	9.888076e-001	1.018106e+000	7.893492e-001	1.065620e+000	9.405333e-001	9.490500e-001	7.638317e-001	8.167945e-001	6.415339e-001	6.488929e-001	6.933784e-001	6.356203e-001	6.210820e-001	6.251251e-001	7.110839e-001	7.307535e-001	9.391358e-001	6.781978e-001	6.645816e-001	9.907701e-001	6.261739e-001	9.875867e-001	9.838906e-001	1.004146e+000	9.947349e-001	1.024095e+000	1.014519e+000	1.026112e+000	1.030567e+000	9.370626e-001	1.005695e+000	9.993185e-001	1.027901e+000	1.031583e+000	1.009306e+000	1.019531e+000	9.908376e-001	9.992311e-001	9.834490e-001	9.851926e-001	1.006777e+000	9.815169e-001	6.248424e-001	6.882279e-001	6.711838e-001	6.586543e-001	7.018897e-001	6.855907e-001	8.472433e-001	7.208271e-001	9.813411e-001	8.827263e-001	9.024660e-001	1.105421e+000	1.146054e+000	9.664718e-001	9.107279e-001	9.175900e-001	1.159317e+000	9.256788e-001	1.057492e+000	7.763396e-001	8.027959e-001	6.449672e-001	7.520429e-001	1.089594e+000	1.107256e+000	6.384478e-001	1.119465e+000	1.127857e+000	6.330326e-001	6.283948e-001	9.686079e-001	1.180950e+000	1.149305e+000	1.158246e+000	9.128294e-001	9.596176e-001	1.134360e+000	6.204871e-001	1.271130e+000	1.145597e+000	9.048137e-001	8.924033e-001	9.076074e-001	8.139318e-001	1.249617e+000	1.293002e+000	9.110634e-001	9.188265e-001	1.088637e+000	1.180308e+000	6.263937e-001	9.172063e-001	9.488871e-001	1.092431e+000	9.130921e-001	1.011026e+000	9.879222e-001	9.046854e-001	1.310546e+000	9.070379e-001	1.107908e+000	1.135631e+000	9.012069e-001	9.212707e-001	9.159985e-001	9.186946e-001	9.097856e-001	9.160284e-001	1.061498e+000	9.573476e-001	1.067911e+000	9.672388e-001	9.846729e-001	1.020410e+000	7.618272e-001	9.850684e-001	7.100406e-001	1.027541e+000	1.106054e+000	6.372382e-001	6.228699e-001	9.601582e-001	1.027005e+000	1.116583e+000	9.734034e-001	1.073816e+000	6.653089e-001	6.402440e-001	6.713588e-001	7.737459e-001	9.163264e-001	9.060306e-001	1.030076e+000	7.291615e-001	8.602776e-001	1.025433e+000	1.124765e+000	1.024218e+000	9.023621e-001	1.193776e+000	1.139430e+000	1.131932e+000	1.110140e+000	1.203507e+000	1.217447e+000	1.337624e+000	1.331068e+000	1.074656e+000	1.200773e+000	9.266421e-001	1.132706e+000	1.105319e+000	6.268707e-001	9.193642e-001	1.094505e+000	1.035538e+000	6.144453e-001	1.096127e+000	1.331202e+000	9.181113e-001	6.284742e-001	9.992562e-001	6.507763e-001	1.023103e+000	1.048295e+000	9.170152e-001	1.074990e+000	1.101966e+000	1.132100e+000	1.017085e+000	1.135959e+000	1.131038e+000	1.101985e+000	8.994477e-001	9.348594e-001	9.413893e-001	1.117981e+000	9.191879e-001	9.195591e-001	9.197400e-001	1.044464e+000	9.167615e-001	9.174690e-001	9.138026e-001	9.718952e-001	1.114245e+000	1.124598e+000	9.001829e-001	9.014220e-001	9.189337e-001	9.171163e-001	1.122774e+000	1.112301e+000	9.247050e-001	9.292522e-001	8.997240e-001	8.991822e-001	9.183977e-001	9.177539e-001	9.540165e-001	9.389573e-001	1.143237e+000	9.145285e-001	9.152709e-001	9.036637e-001	9.048861e-001	9.079916e-001	9.088385e-001	9.117282e-001	9.124150e-001	9.096418e-001	1.321064e+000	1.253701e+000	8.778367e-001	1.092108e+000	6.232850e-001	6.227561e-001	6.230245e-001	6.235375e-001	1.051408e+000	9.976251e-001	9.982913e-001	6.243978e-001	6.254754e-001	6.303235e-001	1.010074e+000	9.602533e-001	8.285091e-001	8.439064e-001	6.599261e-001	6.550535e-001	7.192626e-001	7.398168e-001	7.506390e-001	1.002901e+000	9.888765e-001	9.869709e-001	9.987104e-001	1.016352e+000	1.018721e+000	1.026337e+000	1.023830e+000	1.011957e+000	1.007384e+000	9.948739e-001	9.916247e-001	9.862144e-001	9.862551e-001	9.964659e-001	9.976241e-001	6.269958e-001	6.254189e-001	8.344369e-001	6.417317e-001	6.779346e-001	6.852660e-001	6.930968e-001	7.014453e-001	9.967501e-001	8.970088e-001	9.181403e-001	9.667714e-001	9.770405e-001	9.197711e-001	9.196302e-001	1.156534e+000	9.413693e-001	7.864825e-001	7.999189e-001	6.434105e-001	6.469019e-001	6.323272e-001	6.346020e-001	9.700711e-001	9.841790e-001	9.165213e-001	9.161246e-001	9.928337e-001	1.286392e+000	9.103580e-001	1.309876e+000	9.190087e-001	9.146343e-001	9.594960e-001	9.221149e-001	1.091248e+000	1.105959e+000	1.094831e+000	1.001377e+000	1.153608e+000	1.115389e+000	1.148332e+000	1.159927e+000	1.124772e+000	1.182190e+000	1.080137e+000	1.302761e+000	9.156569e-001	1.102023e+000	1.099860e+000	6.279259e-001	1.148128e+000	1.206613e+000	9.257742e-001	1.266765e+000	9.289813e-001	1.109843e+000	1.031749e+000	1.174036e+000	9.163961e-001	1.020262e+000	9.233914e-001	1.105910e+000	1.141639e+000	1.063725e+000	6.263544e-001	9.771219e-001	9.896975e-001	1.122372e+000	6.260404e-001	6.618086e-001	6.451999e-001	7.289157e-001	8.409354e-001	1.154219e+000	1.287364e+000	1.230158e+000	1.009578e+000	1.271620e+000	1.123519e+000	9.212569e-001	1.325662e+000	9.079525e-001	9.213235e-001	1.052397e+000	1.075655e+000	1.017252e+000	1.001964e+000	9.867929e-001	1.080943e+000	9.849045e-001	1.022447e+000	1.024113e+000	6.488021e-001	6.569915e-001	6.789913e-001	7.849899e-001	9.208158e-001	9.218101e-001	9.109311e-001	1.041182e+000	7.386019e-001	1.043977e+000	1.129715e+000	1.113399e+000	1.193845e+000	1.237859e+000	1.319602e+000	1.026638e+000	1.170227e+000	1.158812e+000	1.119152e+000	1.098194e+000	6.168385e-001	9.208230e-001	6.321752e-001	9.980344e-001	1.009034e+000	1.043434e+000	1.055450e+000	9.388402e-001	9.289228e-001	1.067446e+000	1.079568e+000	1.123420e+000	1.125062e+000	1.100522e+000	9.445662e-001	9.516818e-001	1.115041e+000	9.217437e-001	9.220523e-001	9.196752e-001	9.202600e-001	1.003830e+000	1.111468e+000	1.118723e+000	9.076265e-001	9.076417e-001	9.218959e-001	9.215743e-001	1.112840e+000	1.106040e+000	9.331752e-001	9.385332e-001	9.118271e-001	9.093150e-001	9.080201e-001	9.211946e-001	9.207929e-001	9.839578e-001	9.663971e-001	9.512860e-001	9.170079e-001	9.176578e-001	9.183271e-001	9.086973e-001	9.094585e-001	9.102389e-001	9.116602e-001	9.123028e-001	9.152180e-001	9.157790e-001	9.129517e-001	8.916839e-001	6.260448e-001	6.266783e-001	1.022484e+000	6.275339e-001	6.287459e-001	6.302216e-001	6.343915e-001	1.004867e+000	8.568482e-001	8.737639e-001	6.669695e-001	6.728236e-001	7.491992e-001	7.610567e-001	7.730338e-001	9.900564e-001	1.012887e+000	1.018812e+000	1.024090e+000	1.022753e+000	1.020420e+000	1.013634e+000	1.009799e+000	1.005839e+000	9.984103e-001	9.950826e-001	9.923590e-001	9.889637e-001	9.890784e-001	9.889193e-001	1.000220e+000	6.288752e-001	6.273902e-001	9.571351e-001	7.205147e-001	6.240108e-001	6.858125e-001	6.930575e-001	7.013036e-001	7.101354e-001	7.195534e-001	9.109631e-001	9.323113e-001	9.681564e-001	9.776179e-001	9.875318e-001	9.221945e-001	9.222251e-001	9.558286e-001	9.812614e-001	7.977306e-001	8.114612e-001	8.258625e-001	6.527384e-001	6.368916e-001	6.394047e-001	6.420950e-001	9.782506e-001	9.854464e-001	9.951974e-001	9.204671e-001	9.202756e-001	9.203714e-001	9.135147e-001	9.140979e-001	1.288194e+000	9.264432e-001	1.120897e+000	1.071882e+000	9.247196e-001	1.281626e+000	1.135263e+000	1.091732e+000	1.100179e+000	1.034708e+000	1.105735e+000	6.308443e-001	1.266280e+000	1.049411e+000	1.194277e+000	1.007919e+000	1.113864e+000	1.213396e+000	1.003235e+000	1.182327e+000	1.161683e+000	1.174676e+000	9.696050e-001	9.152073e-001	1.084065e+000	9.223263e-001	9.325919e-001	9.238176e-001	9.186126e-001	1.085203e+000	6.291878e-001	9.966473e-001	9.913865e-001	1.000931e+000	7.503717e-001	6.761705e-001	1.102184e+000	8.696287e-001	1.029282e+000	1.135893e+000	1.096451e+000	1.119703e+000	1.110516e+000	1.110146e+000	9.298898e-001	1.221715e+000	9.339550e-001	9.368116e-001	1.138158e+000	1.105933e+000	1.166526e+000	1.014453e+000	6.302003e-001	6.601540e-001	1.249606e+000	1.080555e+000	9.924855e-001	1.020274e+000	6.559861e-001	6.651937e-001	6.702025e-001	9.259762e-001	9.285367e-001	1.056568e+000	1.113200e+000	1.147967e+000	1.247078e+000	1.299990e+000	1.058508e+000	1.113683e+000	1.101422e+000	6.226931e-001	1.008206e+000	1.018487e+000	1.039978e+000	1.050710e+000	9.505943e-001	9.405554e-001	1.061409e+000	1.072044e+000	1.082218e+000	1.114730e+000	1.115282e+000	9.540215e-001	9.624485e-001	1.112019e+000	9.242615e-001	9.246326e-001	9.227695e-001	9.233461e-001	1.107197e+000	1.111944e+000	9.161091e-001	9.151000e-001	9.250967e-001	1.106635e+000	1.103188e+000	9.426182e-001	9.489007e-001	9.219459e-001	9.189171e-001	9.172650e-001	9.244020e-001	9.248038e-001	1.014148e+000	9.950628e-001	9.776223e-001	9.627501e-001	9.199788e-001	9.205526e-001	9.210931e-001	9.216862e-001	9.153723e-001	9.156872e-001	9.158744e-001	9.162855e-001	9.165952e-001	9.195278e-001	9.190025e-001	9.170521e-001	6.309434e-001	1.040073e+000	1.023239e+000	6.320952e-001	6.332562e-001	6.350710e-001	6.369918e-001	6.396399e-001	8.870695e-001	9.056624e-001	6.820556e-001	6.889982e-001	7.607072e-001	7.721051e-001	7.848310e-001	7.976610e-001	1.008995e+000	1.014212e+000	1.018035e+000	1.021146e+000	1.020752e+000	1.019437e+000	1.016797e+000	1.011346e+000	1.007627e+000	1.004328e+000	9.978057e-001	9.951247e-001	9.925850e-001	9.907462e-001	9.892840e-001	9.883434e-001	9.876044e-001	6.311140e-001	6.314142e-001	9.961571e-001	8.549049e-001	6.637251e-001	6.250212e-001	6.956908e-001	7.033890e-001	7.109949e-001	7.200402e-001	7.294449e-001	7.397449e-001	9.247995e-001	9.454100e-001	9.790828e-001	9.887666e-001	9.981556e-001	9.248464e-001	9.246335e-001	9.251923e-001	9.687299e-001	9.937063e-001	1.020081e+000	8.103227e-001	8.237058e-001	8.384336e-001	8.537100e-001	6.423578e-001	6.456259e-001	6.487094e-001	6.519604e-001	1.002766e+000	9.919897e-001	9.964788e-001	9.240835e-001	9.247970e-001	9.243449e-001	9.257576e-001	9.173688e-001	9.178052e-001	9.181388e-001	1.134628e+000	1.115943e+000	1.106252e+000	1.156971e+000	1.159584e+000	9.436106e-001	9.372047e-001	1.183609e+000	1.065573e+000	1.229336e+000	1.063371e+000	9.226219e-001	7.746010e-001	1.084122e+000	1.172177e+000	1.255579e+000	1.305555e+000	1.306153e+000	1.295342e+000	1.247032e+000	1.116658e+000	6.690311e-001	1.104593e+000	1.105359e+000	1.096144e+000	9.755312e-001	9.256147e-001	1.105565e+000	1.007635e+000	1.002736e+000	6.348040e-001	6.353045e-001	1.016829e+000	9.982475e-001	6.363059e-001	9.280244e-001	6.626971e-001	1.097609e+000	9.437671e-001	1.148629e+000	1.077582e+000	1.301696e+000	1.166265e+000	1.153788e+000	1.091172e+000	1.042664e+000	1.265633e+000	1.055888e+000	1.207142e+000	1.014865e+000	1.199146e+000	1.156604e+000	1.162425e+000	1.110431e+000	9.225263e-001	9.227256e-001	1.088180e+000	6.230160e-001	1.006689e+000	1.102811e+000	9.364393e-001	1.228867e+000	6.727500e-001	6.802360e-001	6.846242e-001	9.318081e-001	1.112754e+000	1.142486e+000	1.277683e+000	1.087226e+000	1.018009e+000	1.026649e+000	1.036765e+000	1.046768e+000	9.519560e-001	9.626470e-001	1.056388e+000	1.066210e+000	1.074339e+000	1.083828e+000	1.107012e+000	1.107251e+000	9.614561e-001	1.109441e+000	9.266231e-001	9.274627e-001	9.256343e-001	9.265868e-001	1.102284e+000	1.105231e+000	9.240624e-001	9.218807e-001	1.102967e+000	1.102139e+000	9.527276e-001	9.319415e-001	9.273627e-001	9.268497e-001	9.281717e-001	1.023478e+000	1.005183e+000	9.884218e-001	9.749269e-001	9.234098e-001	9.233358e-001	9.242404e-001	9.242249e-001	9.252490e-001	9.213946e-001	9.219852e-001	9.210085e-001	9.217518e-001	9.211364e-001	1.052550e+000	1.039213e+000	1.026261e+000	6.365083e-001	6.388730e-001	6.397200e-001	6.428700e-001	6.445254e-001	9.007231e-001	9.195208e-001	6.932207e-001	6.983249e-001	7.825205e-001	7.969132e-001	8.109657e-001	1.011872e+000	1.014901e+000	1.017010e+000	1.018455e+000	1.018229e+000	1.018006e+000	1.015893e+000	1.012744e+000	1.008644e+000	1.003698e+000	9.931209e-001	9.878025e-001	9.939457e-001	8.376845e-001	6.327065e-001	7.079418e-001	7.134550e-001	7.239234e-001	7.299812e-001	7.417194e-001	7.518546e-001	7.629531e-001	9.388904e-001	9.586340e-001	9.898129e-001	9.983221e-001	1.007801e+000	9.276556e-001	9.276085e-001	9.804339e-001	1.004911e+000	1.029565e+000	8.243662e-001	8.376823e-001	8.520221e-001	8.683443e-001	8.843930e-001	6.485757e-001	6.508905e-001	6.557820e-001	6.598555e-001	1.002236e+000	1.005038e+000	9.284277e-001	9.294059e-001	9.219122e-001	9.214355e-001	9.222211e-001	9.218975e-001	1.142275e+000	1.142307e+000	1.173300e+000	1.270177e+000	1.166528e+000	1.100682e+000	1.090499e+000	1.210613e+000	1.029802e+000	1.120569e+000	1.101880e+000	1.257654e+000	1.067732e+000	1.152205e+000	6.739146e-001	1.155874e+000	1.111226e+000	1.185716e+000	1.130681e+000	1.100926e+000	9.310639e-001	1.081532e+000	9.262944e-001	1.092621e+000	1.085561e+000	9.333410e-001	9.476535e-001	9.283037e-001	1.228593e+000	9.286671e-001	9.642422e-001	9.555831e-001	8.028464e-001	1.061259e+000	1.011031e+000	1.233957e+000	1.085877e+000	1.101062e+000	1.151988e+000	1.071659e+000	1.302988e+000	1.244568e+000	1.103977e+000	9.544873e-001	6.420237e-001	6.425905e-001	1.098432e+000	1.156100e+000	1.118458e+000	1.281703e+000	1.159184e+000	1.049527e+000	1.212452e+000	1.193561e+000	6.297312e-001	1.088411e+000	1.021422e+000	1.015367e+000	6.394727e-001	6.853305e-001	6.988379e-001	9.460438e-001	1.136801e+000	1.162055e+000	1.110179e+000	1.029659e+000	1.046756e+000	9.737608e-001	1.063759e+000	1.076246e+000	1.100589e+000	1.107350e+000	9.295746e-001	1.097166e+000	1.099181e+000	9.302879e-001	1.100817e+000	9.636171e-001	9.744889e-001	9.392816e-001	9.349949e-001	9.316023e-001	1.031813e+000	1.013610e+000	9.975280e-001	9.879914e-001	9.268448e-001	9.275365e-001	9.285089e-001	9.269169e-001	9.261998e-001	1.050531e+000	1.039917e+000	6.469076e-001	6.522162e-001	9.324894e-001	7.140164e-001	8.238927e-001	1.005084e+000	1.014340e+000	1.016088e+000	1.015284e+000	1.012468e+000	1.009174e+000	1.000478e+000	9.958092e-001	9.889067e-001	9.882847e-001	1.011475e+000	9.664928e-001	7.138688e-001	6.321466e-001	7.306818e-001	7.482416e-001	7.655401e-001	7.736265e-001	7.878216e-001	9.526301e-001	9.717559e-001	9.883492e-001	1.002497e+000	1.016746e+000	9.305216e-001	9.307069e-001	9.915902e-001	1.014267e+000	1.037765e+000	1.061085e+000	8.392514e-001	8.526516e-001	8.665123e-001	8.824825e-001	9.012062e-001	9.133137e-001	6.592237e-001	6.671345e-001	1.009932e+000	1.009881e+000	9.322133e-001	9.356226e-001	9.397114e-001	9.259465e-001	9.259858e-001	1.104728e+000	1.145768e+000	1.139311e+000	1.125026e+000	1.014781e+000	1.092269e+000	1.152047e+000	1.117042e+000	1.181099e+000	1.127031e+000	1.126362e+000	1.111097e+000	1.131229e+000	1.214344e+000	1.238206e+000	1.049694e+000	9.654160e-001	6.820630e-001	1.113269e+000	1.067449e+000	1.089364e+000	9.366837e-001	1.109333e+000	1.163731e+000	9.318641e-001	1.089371e+000	9.393135e-001	9.347871e-001	1.097315e+000	1.098304e+000	1.071454e+000	1.056077e+000	1.151500e+000	1.076013e+000	1.084152e+000	1.033321e+000	7.065898e-001	6.254660e-001	9.487877e-001	9.833985e-001	1.137572e+000	1.142295e+000	1.282586e+000	1.096479e+000	1.041069e+000	1.161891e+000	1.099666e+000	1.194391e+000	1.145220e+000	9.341472e-001	1.225345e+000	9.766413e-001	9.654602e-001	1.067339e+000	1.249285e+000	1.095574e+000	1.101671e+000	9.564745e-001	1.260258e+000	1.159957e+000	9.968441e-001	1.211684e+000	1.197139e+000	6.