# vtk DataFile Version 3.0
vtk output
ASCII
DATASET UNSTRUCTURED_GRID
POINTS 5233 float
9.997500e-001	-3.632406e-005	0.0	9.990000e-001	-1.449443e-004	0.0	9.977600e-001	-3.217254e-004	0.0	9.960200e-001	-5.587861e-004	0.0	9.937800e-001	-8.350172e-004	0.0	9.910500e-001	-1.114099e-003	0.0	9.878400e-001	-1.351060e-003	0.0	9.841300e-001	-1.507180e-003	0.0	9.799500e-001	-1.566192e-003	0.0	9.752800e-001	-1.557909e-003	0.0	9.701500e-001	-1.562217e-003	0.0	9.645400e-001	-1.695672e-003	0.0	9.584700e-001	-2.079375e-003	0.0	9.519400e-001	-2.802898e-003	0.0	9.449600e-001	-3.897934e-003	0.0	9.375400e-001	-5.334479e-003	0.0	9.296900e-001	-7.037337e-003	0.0	9.214000e-001	-8.917111e-003	0.0	9.127000e-001	-1.088058e-002	0.0	9.035800e-001	-1.286320e-002	0.0	8.940600e-001	-1.481734e-002	0.0	8.841500e-001	-1.671733e-002	0.0	8.738500e-001	-1.855163e-002	0.0	8.631800e-001	-2.031042e-002	0.0	8.521600e-001	-2.198531e-002	0.0	8.407700e-001	-2.357254e-002	0.0	8.290500e-001	-2.505852e-002	0.0	8.170100e-001	-2.643461e-002	0.0	8.046400e-001	-2.769582e-002	0.0	7.919700e-001	-2.883616e-002	0.0	7.790100e-001	-2.985624e-002	0.0	7.657800e-001	-3.076061e-002	0.0	7.522800e-001	-3.155967e-002	0.0	7.385200e-001	-3.226670e-002	0.0	7.245300e-001	-3.289691e-002	0.0	7.103200e-001	-3.346828e-002	0.0	6.958900e-001	-3.399952e-002	0.0	6.812700e-001	-3.450759e-002	0.0	6.664700e-001	-3.500875e-002	0.0	6.515000e-001	-3.551703e-002	0.0	6.363800e-001	-3.604351e-002	0.0	6.211300e-001	-3.659639e-002	0.0	6.057600e-001	-3.718132e-002	0.0	5.902800e-001	-3.780127e-002	0.0	5.747100e-001	-3.845629e-002	0.0	5.590600e-001	-3.914468e-002	0.0	5.433600e-001	-3.986203e-002	0.0	5.276100e-001	-4.060387e-002	0.0	5.118400e-001	-4.136326e-002	0.0	4.960500e-001	-4.213400e-002	0.0	4.802700e-001	-4.290797e-002	0.0	4.645100e-001	-4.367787e-002	0.0	4.487800e-001	-4.443639e-002	0.0	4.331100e-001	-4.517540e-002	0.0	4.175000e-001	-4.588844e-002	0.0	4.019700e-001	-4.656838e-002	0.0	3.865400e-001	-4.720841e-002	0.0	3.712300e-001	-4.780210e-002	0.0	3.560400e-001	-4.834403e-002	0.0	3.409900e-001	-4.882824e-002	0.0	3.261100e-001	-4.924880e-002	0.0	3.114000e-001	-4.960092e-002	0.0	2.968700e-001	-4.987960e-002	0.0	2.825500e-001	-5.007973e-002	0.0	2.684500e-001	-5.019691e-002	0.0	2.545700e-001	-5.022693e-002	0.0	2.409400e-001	-5.016578e-002	0.0	2.275700e-001	-5.000996e-002	0.0	2.144700e-001	-4.975635e-002	0.0	2.016600e-001	-4.940253e-002	0.0	1.891400e-001	-4.894610e-002	0.0	1.769300e-001	-4.838576e-002	0.0	1.650400e-001	-4.772057e-002	0.0	1.534900e-001	-4.695084e-002	0.0	1.422900e-001	-4.607707e-002	0.0	1.314400e-001	-4.509943e-002	0.0	1.209500e-001	-4.401919e-002	0.0	1.108500e-001	-4.284063e-002	0.0	1.011300e-001	-4.156410e-002	0.0	9.181000e-002	-4.019387e-002	0.0	8.290000e-002	-3.873354e-002	0.0	7.440000e-002	-3.718519e-002	0.0	6.633000e-002	-3.555474e-002	0.0	5.869000e-002	-3.384461e-002	0.0	5.149000e-002	-3.205927e-002	0.0	4.474000e-002	-3.020361e-002	0.0	3.844000e-002	-2.827981e-002	0.0	3.260000e-002	-2.629290e-002	0.0	2.723000e-002	-2.424859e-002	0.0	2.232000e-002	-2.214458e-002	0.0	1.790000e-002	-1.999593e-002	0.0	1.395000e-002	-1.779502e-002	0.0	1.049000e-002	-1.555420e-002	0.0	7.520000e-003	-1.327610e-002	0.0	5.040000e-003	-1.096213e-002	0.0	3.050000e-003	-8.610827e-003	0.0	1.560000e-003	-6.232603e-003	0.0	5.600000e-004	-3.798858e-003	0.0	6.000000e-005	-1.284358e-003	0.0	0.000000e+000	0.000000e+000	0.0	6.000000e-005	1.409761e-003	0.0	5.600000e-004	4.366773e-003	0.0	1.560000e-003	7.334929e-003	0.0	3.050000e-003	1.027962e-002	0.0	5.040000e-003	1.320560e-002	0.0	7.520000e-003	1.608221e-002	0.0	1.049000e-002	1.890029e-002	0.0	1.395000e-002	2.165141e-002	0.0	1.790000e-002	2.432858e-002	0.0	2.232000e-002	2.691538e-002	0.0	2.723000e-002	2.942145e-002	0.0	3.260000e-002	3.183072e-002	0.0	3.844000e-002	3.414919e-002	0.0	4.474000e-002	3.637439e-002	0.0	5.149000e-002	3.850556e-002	0.0	5.869000e-002	4.054588e-002	0.0	6.633000e-002	4.249585e-002	0.0	7.440000e-002	4.435663e-002	0.0	8.290000e-002	4.613176e-002	0.0	9.181000e-002	4.782050e-002	0.0	1.011300e-001	4.942610e-002	0.0	1.108500e-001	5.094940e-002	0.0	1.209500e-001	5.238959e-002	0.0	1.314400e-001	5.374957e-002	0.0	1.422900e-001	5.502628e-002	0.0	1.534900e-001	5.621901e-002	0.0	1.650400e-001	5.732730e-002	0.0	1.769300e-001	5.834888e-002	0.0	1.891400e-001	5.928022e-002	0.0	2.016600e-001	6.011825e-002	0.0	2.144700e-001	6.085897e-002	0.0	2.275700e-001	6.149928e-002	0.0	2.409400e-001	6.203482e-002	0.0	2.545700e-001	6.246180e-002	0.0	2.684500e-001	6.277649e-002	0.0	2.825500e-001	6.297526e-002	0.0	2.968700e-001	6.305557e-002	0.0	3.114000e-001	6.301518e-002	0.0	3.261100e-001	6.285289e-002	0.0	3.409900e-001	6.256849e-002	0.0	3.560400e-001	6.216240e-002	0.0	3.712300e-001	6.163693e-002	0.0	3.865400e-001	6.099557e-002	0.0	4.019700e-001	6.024208e-002	0.0	4.175000e-001	5.938219e-002	0.0	4.331100e-001	5.842277e-002	0.0	4.487800e-001	5.737176e-002	0.0	4.645100e-001	5.623643e-002	0.0	4.802700e-001	5.502664e-002	0.0	4.960500e-001	5.375116e-002	0.0	5.118400e-001	5.241864e-002	0.0	5.276100e-001	5.103918e-002	0.0	5.433600e-001	4.961979e-002	0.0	5.590600e-001	4.816934e-002	0.0	5.747100e-001	4.669300e-002	0.0	5.902800e-001	4.519771e-002	0.0	6.057600e-001	4.368738e-002	0.0	6.211300e-001	4.216593e-002	0.0	6.363800e-001	4.063543e-002	0.0	6.515000e-001	3.909745e-002	0.0	6.664700e-001	3.755446e-002	0.0	6.812700e-001	3.600934e-002	0.0	6.958900e-001	3.446489e-002	0.0	7.103200e-001	3.292527e-002	0.0	7.245300e-001	3.139857e-002	0.0	7.385200e-001	2.989171e-002	0.0	7.522800e-001	2.841461e-002	0.0	7.657800e-001	2.698076e-002	0.0	7.790100e-001	2.560205e-002	0.0	7.919700e-001	2.428853e-002	0.0	8.046400e-001	2.304956e-002	0.0	8.170100e-001	2.188845e-002	0.0	8.290500e-001	2.080276e-002	0.0	8.407700e-001	1.977663e-002	0.0	8.521600e-001	1.878465e-002	0.0	8.631800e-001	1.779241e-002	0.0	8.738500e-001	1.675058e-002	0.0	8.841500e-001	1.560858e-002	0.0	8.940600e-001	1.432003e-002	0.0	9.035800e-001	1.285168e-002	0.0	9.127000e-001	1.120031e-002	0.0	9.214000e-001	9.406054e-003	0.0	9.296900e-001	7.549316e-003	0.0	9.375400e-001	5.758659e-003	0.0	9.449600e-001	4.171112e-003	0.0	9.519400e-001	2.911331e-003	0.0	9.584700e-001	2.049765e-003	0.0	9.645400e-001	1.578060e-003	0.0	9.701500e-001	1.410544e-003	0.0	9.752800e-001	1.414749e-003	0.0	9.799500e-001	1.455418e-003	0.0	9.841300e-001	1.434568e-003	0.0	9.878400e-001	1.310702e-003	0.0	9.910500e-001	1.095264e-003	0.0	9.937800e-001	8.279213e-004	0.0	9.960200e-001	5.567684e-004	0.0	9.977600e-001	3.213452e-004	0.0	9.990000e-001	1.449093e-004	0.0	9.997500e-001	3.632350e-005	0.0	1.000000e+000	0.000000e+000	0.0	1.984229e+001	2.506660e+000	0.0	1.937166e+001	4.973800e+000	0.0	1.859553e+001	7.362490e+000	0.0	1.752613e+001	9.635070e+000	0.0	1.618034e+001	1.175571e+001	0.0	1.457937e+001	1.369094e+001	0.0	1.274848e+001	1.541027e+001	0.0	1.071654e+001	1.688656e+001	0.0	8.515590e+000	1.809654e+001	0.0	6.180340e+000	1.902113e+001	0.0	3.747630e+000	1.964575e+001	0.0	1.255810e+000	1.996053e+001	0.0	-1.255810e+000	1.996053e+001	0.0	-3.747630e+000	1.964574e+001	0.0	-6.180340e+000	1.902113e+001	0.0	-8.515590e+000	1.809654e+001	0.0	-1.071654e+001	1.688656e+001	0.0	-1.274848e+001	1.541026e+001	0.0	-1.457937e+001	1.369094e+001	0.0	-1.618034e+001	1.175570e+001	0.0	-1.752613e+001	9.635070e+000	0.0	-1.859553e+001	7.362490e+000	0.0	-1.937166e+001	4.973800e+000	0.0	-1.984229e+001	2.506660e+000	0.0	-2.000000e+001	0.000000e+000	0.0	-1.984229e+001	-2.506670e+000	0.0	-1.937166e+001	-4.973800e+000	0.0	-1.859553e+001	-7.362490e+000	0.0	-1.752613e+001	-9.635080e+000	0.0	-1.618034e+001	-1.175571e+001	0.0	-1.457937e+001	-1.369094e+001	0.0	-1.274848e+001	-1.541027e+001	0.0	-1.071653e+001	-1.688656e+001	0.0	-8.515580e+000	-1.809654e+001	0.0	-6.180340e+000	-1.902113e+001	0.0	-3.747620e+000	-1.964575e+001	0.0	-1.255810e+000	-1.996053e+001	0.0	1.255810e+000	-1.996053e+001	0.0	3.747630e+000	-1.964574e+001	0.0	6.180340e+000	-1.902113e+001	0.0	8.515590e+000	-1.809654e+001	0.0	1.071654e+001	-1.688656e+001	0.0	1.274848e+001	-1.541026e+001	0.0	1.457937e+001	-1.369094e+001	0.0	1.618034e+001	-1.175570e+001	0.0	1.752614e+001	-9.635070e+000	0.0	1.859553e+001	-7.362490e+000	0.0	1.937166e+001	-4.973790e+000	0.0	1.984229e+001	-2.506660e+000	0.0	2.000000e+001	0.000000e+000	0.0	6.096009e-002	-4.171600e-002	0.0	6.598229e-001	-4.907568e-002	0.0	4.260762e-001	7.312965e-002	0.0	6.899486e-001	4.869166e-002	0.0	3.793663e-001	-6.163501e-002	0.0	9.994592e-001	-6.943173e-004	0.0	9.985487e-001	-1.268514e-003	0.0	7.735457e-001	-4.211891e-002	0.0	6.894757e-001	-4.766331e-002	0.0	-1.485620e-003	6.799588e-003	0.0	7.464512e-001	-4.430524e-002	0.0	5.837829e-001	6.025586e-002	0.0	9.927511e-001	-3.358589e-003	0.0	9.898199e-001	-4.060840e-003	0.0	5.993270e-001	5.867237e-002	0.0	7.183941e-001	-4.611101e-002	0.0	-1.563807e-003	8.660453e-004	0.0	9.863864e-001	-4.732527e-003	0.0	9.824644e-001	-5.350478e-003	0.0	-1.349304e-003	-5.923606e-003	0.0	6.447608e-001	-4.976384e-002	0.0	8.243447e-001	-3.635133e-002	0.0	7.995433e-001	-3.948480e-002	0.0	3.488560e-001	7.605103e-002	0.0	8.478070e-001	-3.277297e-002	0.0	2.474104e-001	7.470438e-002	0.0	8.698634e-001	-2.880351e-002	0.0	9.789992e-003	2.334029e-002	0.0	8.903977e-001	-2.453193e-002	0.0	7.724832e-002	-4.575636e-002	0.0	9.093278e-001	-2.008404e-002	0.0	-1.897123e-003	-2.915670e-003	0.0	9.420710e-001	-1.185639e-002	0.0	9.265710e-001	-1.571069e-002	0.0	1.811108e-002	-2.517337e-002	0.0	4.259195e-001	-5.996505e-002	0.0	8.590207e-001	-3.082973e-002	0.0	9.558305e-001	-8.981340e-003	0.0	9.780533e-001	-5.939623e-003	0.0	9.678429e-001	-7.157307e-003	0.0	1.585369e-001	-5.790933e-002	0.0	9.000708e-001	-2.231869e-002	0.0	7.601296e-001	-4.326528e-002	0.0	9.971234e-001	-1.973591e-003	0.0	5.988060e-001	-5.186236e-002	0.0	4.415957e-001	-5.931051e-002	0.0	5.362538e-001	-5.484683e-002	0.0	4.731070e-001	-5.789600e-002	0.0	5.046957e-001	-5.638854e-002	0.0	4.888911e-001	-5.714953e-002	0.0	1.252023e-001	-5.415364e-002	0.0	2.803088e-002	-3.024893e-002	0.0	3.947926e-001	-6.113429e-002	0.0	4.642743e-002	-3.735
[...]
POINT_DATA 5233

SCALARS Density float 1
LOOKUP_TABLE default
1.166036e+000	1.136504e+000	1.114926e+000	1.094189e+000	1.075212e+000	1.061654e+000	1.058213e+000	1.067051e+000	1.085758e+000	1.108950e+000	1.130497e+000	1.145479e+000	1.151687e+000	1.148899e+000	1.138005e+000	1.120657e+000	1.098917e+000	1.074991e+000	1.050877e+000	1.028248e+000	1.007964e+000	9.900950e-001	9.742306e-001	9.599524e-001	9.469197e-001	9.351212e-001	9.248435e-001	9.166857e-001	9.112076e-001	9.087983e-001	9.094860e-001	9.128407e-001	9.182368e-001	9.249072e-001	9.321881e-001	9.395340e-001	9.464829e-001	9.527630e-001	9.581309e-001	9.625234e-001	9.658544e-001	9.681541e-001	9.694266e-001	9.697471e-001	9.691673e-001	9.677799e-001	9.656598e-001	9.628989e-001	9.595643e-001	9.557197e-001	9.514147e-001	9.467168e-001	9.416855e-001	9.363783e-001	9.307964e-001	9.249627e-001	9.188748e-001	9.125893e-001	9.061050e-001	8.993601e-001	8.923329e-001	8.851291e-001	8.780212e-001	8.710251e-001	8.636686e-001	8.549202e-001	8.442599e-001	8.327587e-001	8.228979e-001	8.164988e-001	8.139754e-001	8.147258e-001	8.179508e-001	8.228048e-001	8.286973e-001	8.352731e-001	8.425623e-001	8.506911e-001	8.596073e-001	8.692528e-001	8.796587e-001	8.908076e-001	9.027856e-001	9.156418e-001	9.295141e-001	9.446237e-001	9.611348e-001	9.793286e-001	9.996165e-001	1.022312e+000	1.048025e+000	1.077435e+000	1.110977e+000	1.149420e+000	1.192803e+000	1.239698e+000	1.285387e+000	1.332454e+000	1.350788e+000	1.349773e+000	1.349945e+000	1.328471e+000	1.277555e+000	1.225086e+000	1.167362e+000	1.110694e+000	1.057763e+000	1.009838e+000	9.671860e-001	9.299977e-001	8.979065e-001	8.701664e-001	8.463493e-001	8.258799e-001	8.083741e-001	7.935328e-001	7.808189e-001	7.696999e-001	7.598768e-001	7.511304e-001	7.434409e-001	7.368280e-001	7.310726e-001	7.256380e-001	7.201091e-001	7.144852e-001	7.090885e-001	7.038911e-001	6.986178e-001	6.930193e-001	6.872136e-001	6.813809e-001	6.756499e-001	6.699581e-001	6.642572e-001	6.584478e-001	6.525033e-001	6.464668e-001	6.403020e-001	6.341155e-001	6.280287e-001	6.223012e-001	6.170837e-001	6.122999e-001	6.077839e-001	6.035448e-001	5.996691e-001	5.963823e-001	5.936793e-001	5.918148e-001	5.904782e-001	5.895474e-001	5.894657e-001	5.908382e-001	5.923951e-001	5.917942e-001	5.985848e-001	7.090633e-001	9.265846e-001	1.006651e+000	1.001016e+000	9.940371e-001	9.964279e-001	9.988637e-001	1.000518e+000	1.002714e+000	1.005246e+000	1.007764e+000	1.009943e+000	1.011541e+000	1.012211e+000	1.011662e+000	1.009642e+000	1.006063e+000	1.001048e+000	9.952247e-001	9.897652e-001	9.865076e-001	9.877606e-001	9.957695e-001	1.011523e+000	1.033887e+000	1.059542e+000	1.084408e+000	1.105381e+000	1.120054e+000	1.126711e+000	1.124622e+000	1.114094e+000	1.097096e+000	1.077881e+000	1.061967e+000	1.054234e+000	1.056955e+000	1.068397e+000	1.084807e+000	1.102910e+000	1.122456e+000	1.142659e+000	1.138876e+000	9.987764e-001	9.996401e-001	9.997087e-001	9.995598e-001	9.994533e-001	9.993198e-001	9.991634e-001	9.989706e-001	9.987622e-001	9.986219e-001	9.985505e-001	9.986385e-001	9.988450e-001	9.992303e-001	9.995528e-001	9.998177e-001	9.999705e-001	1.000069e+000	1.000135e+000	1.000167e+000	1.000188e+000	1.000198e+000	1.000207e+000	1.000218e+000	1.000226e+000	1.000238e+000	1.000259e+000	1.000286e+000	1.000323e+000	1.000378e+000	1.000441e+000	1.000545e+000	1.000648e+000	1.000825e+000	1.000992e+000	1.001204e+000	1.001430e+000	1.001527e+000	1.001559e+000	1.001442e+000	1.001306e+000	1.001109e+000	1.000927e+000	1.000748e+000	1.000590e+000	1.000400e+000	1.000249e+000	1.000259e+000	9.993624e-001	9.981794e-001	9.239420e-001	9.604382e-001	6.110463e-001	9.961093e-001	9.177761e-001	1.143009e+000	1.126792e+000	9.171140e-001	9.508435e-001	1.307748e+000	9.260032e-001	5.914574e-001	1.077975e+000	1.070718e+000	5.908427e-001	9.386003e-001	1.346716e+000	1.071884e+000	1.081427e+000	1.315668e+000	9.639274e-001	9.279923e-001	9.169155e-001	6.383332e-001	9.480053e-001	6.807132e-001	9.735185e-001	1.070982e+000	1.004379e+000	8.982482e-001	1.042069e+000	1.341388e+000	1.118973e+000	1.083717e+000	1.060647e+000	9.348382e-001	9.601829e-001	1.135412e+000	1.096382e+000	1.125945e+000	8.288221e-001	1.022370e+000	9.207782e-001	1.108013e+000	9.688134e-001	9.400086e-001	9.638548e-001	9.495399e-001	9.576387e-001	9.538045e-001	8.489123e-001	1.011069e+000	9.236977e-001	9.540091e-001	9.293929e-001	8.919095e-001	9.053656e-001	9.900977e-001	8.785074e-001	1.102963e+000	8.347560e-001	8.215635e-001	8.867629e-001	8.661695e-001	9.677710e-001	8.241410e-001	9.680972e-001	9.881793e-001	1.034435e+000	1.091447e+000	1.159661e+000	9.850380e-001	1.062887e+000	1.130195e+000	1.112563e+000	1.267592e+000	9.371561e-001	8.548734e-001	9.661399e-001	9.321318e-001	9.156530e-001	8.571036e-001	8.329702e-001	9.686925e-001	9.560619e-001	9.383510e-001	1.199419e+000	1.090051e+000	9.116776e-001	8.214662e-001	1.182028e+000	8.436535e-001	8.760826e-001	8.850664e-001	8.644307e-001	9.449264e-001	9.449643e-001	1.339780e+000	1.281387e+000	5.912636e-001	1.346520e+000	9.161484e-001	8.230080e-001	8.630056e-001	7.451821e-001	6.158506e-001	1.097156e+000	5.924462e-001	5.988822e-001	1.098107e+000	1.112409e+000	9.958611e-001	5.961100e-001	6.065358e-001	6.263377e-001	1.049697e+000	1.012751e+000	7.810245e-001	1.085531e+000	1.110683e+000	1.088578e+000	7.606506e-001	8.070575e-001	6.632735e-001	6.749785e-001	7.150588e-001	6.509969e-001	6.024650e-001	6.209446e-001	7.266280e-001	7.388117e-001	8.333273e-001	7.039911e-001	6.923285e-001	1.004779e+000	5.932841e-001	1.004598e+000	1.000648e+000	1.011566e+000	1.008928e+000	1.005239e+000	1.010642e+000	1.001392e+000	9.975308e-001	1.102513e+000	1.029528e+000	1.107841e+000	1.001334e+000	9.951558e-001	1.011652e+000	1.008483e+000	1.006877e+000	1.010585e+000	9.990770e-001	1.002411e+000	1.008447e+000	9.946967e-001	5.914081e-001	6.138527e-001	6.982249e-001	6.865041e-001	7.207148e-001	7.095903e-001	8.415091e-001	7.327387e-001	1.025939e+000	8.878083e-001	8.252990e-001	1.169715e+000	1.133959e+000	9.210844e-001	8.987556e-001	9.610091e-001	1.220744e+000	9.484199e-001	1.119250e+000	7.702234e-001	7.931908e-001	6.691767e-001	7.523387e-001	1.073612e+000	1.066005e+000	6.572119e-001	1.065251e+000	1.071418e+000	6.447138e-001	6.321557e-001	1.070305e+000	1.156116e+000	1.113507e+000	1.128929e+000	9.664693e-001	9.711775e-001	1.082841e+000	5.939171e-001	1.241266e+000	1.123102e+000	9.106079e-001	8.415016e-001	8.719492e-001	8.070072e-001	1.284316e+000	1.317888e+000	8.796345e-001	9.494884e-001	1.052715e+000	1.158416e+000	5.958771e-001	9.543299e-001	9.232999e-001	1.079545e+000	8.987471e-001	9.615949e-001	9.407321e-001	8.945650e-001	1.294658e+000	8.365221e-001	1.095229e+000	1.121474e+000	8.419837e-001	9.441227e-001	9.620571e-001	9.434245e-001	9.062477e-001	9.228587e-001	1.017894e+000	9.238505e-001	1.117746e+000	9.967056e-001	9.956204e-001	1.008291e+000	7.630387e-001	9.959389e-001	7.282303e-001	1.002613e+000	1.072477e+000	6.499560e-001	5.974401e-001	1.095742e+000	1.003428e+000	1.074643e+000	1.100191e+000	1.080968e+000	6.928123e-001	6.564589e-001	6.986742e-001	7.719233e-001	9.585870e-001	8.316029e-001	1.074841e+000	7.408357e-001	8.576217e-001	1.095793e+000	1.081499e+000	1.007539e+000	8.361911e-001	1.172673e+000	1.103620e+000	1.091458e+000	1.161838e+000	1.248220e+000	1.193152e+000	1.337858e+000	1.340408e+000	1.067451e+000	1.184341e+000	9.323129e-001	1.116009e+000	1.090208e+000	6.205325e-001	9.644767e-001	1.082720e+000	9.873162e-001	5.843033e-001	1.082081e+000	1.322757e+000	9.386583e-001	6.259704e-001	9.504369e-001	6.751092e-001	9.738674e-001	1.001949e+000	9.187981e-001	1.034942e+000	1.070461e+000	1.112595e+000	1.019597e+000	1.119441e+000	1.118614e+000	1.090924e+000	8.563350e-001	9.285833e-001	9.250712e-001	1.102020e+000	9.479097e-001	9.521006e-001	9.558783e-001	1.042451e+000	9.283719e-001	9.336623e-001	9.051318e-001	9.800136e-001	1.087108e+000	1.101523e+000	8.488044e-001	8.836981e-001	9.662760e-001	9.676934e-001	1.111447e+000	1.101425e+000	9.386212e-001	9.332894e-001	8.737321e-001	8.646136e-001	9.674685e-001	9.679410e-001	9.628308e-001	9.469794e-001	1.125463e+000	9.112358e-001	9.171372e-001	8.321405e-001	8.303309e-001	8.449971e-001	8.552371e-001	8.858461e-001	8.922554e-001	8.650133e-001	1.337246e+000	1.229367e+000	8.791924e-001	1.074774e+000	5.953763e-001	5.997775e-001	6.029841e-001	6.065227e-001	1.088763e+000	1.100037e+000	1.042877e+000	6.107523e-001	6.154107e-001	6.317214e-001	1.027836e+000	1.086824e+000	8.217657e-001	8.385599e-001	6.869851e-001	6.810544e-001	7.343242e-001	7.479417e-001	7.552347e-001	1.010885e+000	1.004108e+000	1.002228e+000	1.009740e+000	1.010124e+000	1.015669e+000	1.003829e+000	1.006046e+000	1.011162e+000	1.011416e+000	1.008085e+000	1.006218e+000	1.000955e+000	9.997133e-001	1.007002e+000	9.640584e-001	5.952200e-001	5.945751e-001	6.941708e-001	5.970748e-001	7.044695e-001	7.104135e-001	7.163579e-001	7.223563e-001	1.034407e+000	9.037484e-001	9.315927e-001	9.270011e-001	9.327553e-001	9.592269e-001	9.620942e-001	1.206431e+000	9.625558e-001	7.821800e-001	7.938616e-001	6.627724e-001	6.690013e-001	6.375758e-001	6.436551e-001	1.074169e+000	1.058961e+000	9.666207e-001	9.647712e-001	9.988208e-001	1.264278e+000	8.729852e-001	1.301194e+000	9.277629e-001	8.873252e-001	9.313752e-001	9.630501e-001	1.060214e+000	1.077473e+000	1.076558e+000	1.091487e+000	1.194524e+000	1.081928e+000	1.116238e+000	1.134354e+000	1.108770e+000	1.162946e+000	1.073579e+000	1.317193e+000	9.031092e-001	1.074682e+000	1.085952e+000	5.976597e-001	1.131114e+000	1.187540e+000	9.489745e-001	1.249161e+000	9.444435e-001	1.099263e+000	9.871928e-001	1.156706e+000	9.054202e-001	9.749846e-001	9.533169e-001	1.091153e+000	1.127265e+000	1.082632e+000	6.016178e-001	1.083860e+000	1.005483e+000	1.088825e+000	6.046403e-001	6.878047e-001	6.624081e-001	7.433033e-001	8.369263e-001	1.126885e+000	1.273473e+000	1.261066e+000	1.042380e+000	1.294588e+000	1.109591e+000	9.148863e-001	1.333338e+000	8.497677e-001	9.466008e-001	1.049778e+000	1.117056e+000	1.010409e+000	1.010251e+000	9.965764e-001	1.078562e+000	1.089349e+000	1.012494e+000	1.009156e+000	6.689348e-001	6.815728e-001	7.058493e-001	7.842934e-001	9.605899e-001	9.572217e-001	8.421103e-001	1.079146e+000	7.498302e-001	1.087133e+000	1.096615e+000	1.155909e+000	1.231144e+000	1.218759e+000	1.318008e+000	1.027547e+000	1.152831e+000	1.140897e+000	1.106395e+000	1.085110e+000	5.951352e-001	9.422807e-001	6.314837e-001	9.536561e-001	9.638067e-001	1.000343e+000	1.014530e+000	9.411564e-001	9.275636e-001	1.029400e+000	1.044860e+000	1.105532e+000	1.109421e+000	1.088129e+000	9.327824e-001	9.312010e-001	1.099620e+000	9.506861e-001	9.544098e-001	9.328853e-001	9.376829e-001	1.007369e+000	1.087629e+000	1.098083e+000	8.644560e-001	8.567069e-001	9.649289e-001	9.663096e-001	1.100709e+000	1.094005e+000	9.399542e-001	9.359920e-001	8.921859e-001	8.819353e-001	8.726949e-001	9.670405e-001	9.671792e-001	9.890474e-001	9.718976e-001	9.558818e-001	9.112709e-001	9.169561e-001	9.224306e-001	8.445004e-001	8.410452e-001	8.400340e-001	8.479064e-001	8.564335e-001	8.933003e-001	8.993348e-001	8.659201e-001	8.955776e-001	6.075369e-001	6.114209e-001	1.090491e+000	6.156950e-001	6.204877e-001	6.256999e-001	6.375133e-001	1.039044e+000	8.543852e-001	8.739696e-001	6.938298e-001	6.999481e-001	7.571850e-001	7.658606e-001	7.749085e-001	1.004053e+000	1.027680e+000	1.018592e+000	1.008088e+000	1.008371e+000	1.009398e+000	1.011161e+000	1.011417e+000	1.011090e+000	1.009043e+000	1.007407e+000	1.005798e+000	1.003048e+000	1.002648e+000	1.000697e+000	1.007434e+000	5.998033e-001	6.001989e-001	8.581153e-001	6.237158e-001	5.816872e-001	7.117912e-001	7.176222e-001	7.238427e-001	7.302411e-001	7.368805e-001	9.194412e-001	9.463376e-001	9.337180e-001	9.384245e-001	9.450955e-001	9.577447e-001	9.606057e-001	9.761855e-001	1.008034e+000	7.949994e-001	8.074264e-001	8.213642e-001	6.753452e-001	6.438471e-001	6.499936e-001	6.561265e-001	1.075259e+000	1.064185e+000	1.051685e+000	9.665657e-001	9.653052e-001	9.632686e-001	8.743277e-001	8.812952e-001	1.279806e+000	9.120653e-001	1.092265e+000	1.079671e+000	9.638031e-001	1.295466e+000	1.118640e+000	1.064861e+000	1.076326e+000	1.034249e+000	1.081628e+000	6.143659e-001	1.254444e+000	1.081334e+000	1.179413e+000	1.083076e+000	1.086191e+000	1.240616e+000	1.011400e+000	1.213872e+000	1.137695e+000	1.156783e+000	9.398041e-001	8.593507e-001	1.078107e+000	9.326598e-001	9.239162e-001	9.457196e-001	8.953300e-001	1.078484e+000	6.048977e-001	1.079582e+000	1.073839e+000	1.009189e+000	7.609067e-001	7.023682e-001	1.088401e+000	8.697583e-001	9.886198e-001	1.105328e+000	1.078975e+000	1.104221e+000	1.097344e+000	1.101380e+000	9.530220e-001	1.206644e+000	9.498490e-001	9.455288e-001	1.126685e+000	1.091581e+000	1.152925e+000	1.011458e+000	6.095834e-001	6.830535e-001	1.271159e+000	1.114821e+000	1.003995e+000	1.016832e+000	6.767536e-001	6.897084e-001	6.958651e-001	9.596341e-001	9.568116e-001	1.081724e+000	1.148200e+000	1.181961e+000	1.232846e+000	1.297569e+000	1.055486e+000	1.099774e+000	1.088145e+000	5.963369e-001	9.674088e-001	9.773203e-001	1.000361e+000	1.012906e+000	9.499977e-001	9.365115e-001	1.025829e+000	1.039186e+000	1.052331e+000	1.098010e+000	1.100193e+000	9.379244e-001	9.394485e-001	1.097132e+000	9.496539e-001	9.533166e-001	9.371962e-001	9.415934e-001	1.086003e+000	1.093170e+000	8.737208e-001	8.654523e-001	9.652410e-001	1.093774e+000	1.090261e+000	9.430047e-001	9.400747e-001	9.010077e-001	8.909440e-001	8.821357e-001	9.663451e-001	9.666618e-001	1.015508e+000	9.975019e-001	9.802119e-001	9.643608e-001	9.120021e-001	9.174347e-001	9.226023e-001	9.276900e-001	8.547408e-001	8.519473e-001	8.515192e-001	8.543733e-001	8.602770e-001	9.065090e-001	9.008285e-001	8.682904e-001	6.181358e-001	1.083589e+000	1.084270e+000	6.226887e-001	6.273873e-001	6.329165e-001	6.384507e-001	6.449041e-001	8.897422e-001	9.117286e-001	7.083839e-001	7.148098e-001	7.683503e-001	7.769776e-001	7.872323e-001	7.980260e-001	1.037309e+000	1.028742e+000	1.021655e+000	1.013588e+000	1.012227e+000	1.011518e+000	1.011648e+000	1.011503e+000	1.011038e+000	1.010411e+000	1.008038e+000	1.006379e+000	1.004895e+000	1.002980e+000	1.001727e+000	1.000504e+000	9.992206e-001	6.086132e-001	6.050643e-001	9.542243e-001	7.185866e-001	6.109826e-001	5.855372e-001	7.206385e-001	7.268044e-001	7.325571e-001	7.391214e-001	7.458364e-001	7.532085e-001	9.347754e-001	9.596876e-001	9.451007e-001	9.509274e-001	9.583031e-001	9.566419e-001	9.592512e-001	9.616434e-001	9.879327e-001	1.017842e+000	1.048421e+000	8.091482e-001	8.216198e-001	8.362591e-001	8.522639e-001	6.511601e-001	6.579376e-001	6.641783e-001	6.702389e-001	1.047058e+000	1.066024e+000	1.056975e+000	9.665577e-001	9.657046e-001	9.643002e-001	9.623437e-001	8.763970e-001	8.836379e-001	8.896411e-001	1.125369e+000	1.089633e+000	1.092366e+000	1.131081e+000	1.148821e+000	9.501142e-001	9.215849e-001	1.171986e+000	1.078526e+000	1.218164e+000	1.060031e+000	8.708037e-001	7.814897e-001	1.112812e+000	1.198862e+000	1.269913e+000	1.312627e+000	1.312751e+000	1.303863e+000	1.237482e+000	1.101531e+000	6.923092e-001	1.091146e+000	1.091339e+000	1.075142e+000	9.487586e-001	9.373423e-001	1.083925e+000	1.044103e+000	1.066116e+000	6.133180e-001	6.194135e-001	1.006983e+000	1.006857e+000	6.258159e-001	9.633749e-001	6.841812e-001	1.080869e+000	9.333744e-001	1.120740e+000	1.078325e+000	1.305397e+000	1.148364e+000	1.136452e+000	1.067597e+000	1.040990e+000	1.258573e+000	1.082973e+000	1.195347e+000	1.075449e+000	1.222813e+000	1.133726e+000	1.142213e+000	1.102976e+000	9.076145e-001	9.030909e-001	1.078969e+000	6.009918e-001	1.071596e+000	1.089151e+000	9.556134e-001	1.248445e+000	6.972242e-001	7.054241e-001	7.102380e-001	9.607487e-001	1.141882e+000	1.170934e+000	1.274332e+000	1.081757e+000	9.810668e-001	9.893812e-001	1.001059e+000	1.011730e+000	9.457752e-001	9.595836e-001	1.023758e+000	1.035155e+000	1.046268e+000	1.058120e+000	1.091224e+000	1.092593e+000	9.453683e-001	1.095031e+000	9.486372e-001	9.522259e-001	9.408586e-001	9.449086e-001	1.083300e+000	1.087983e+000	8.830347e-001	8.740725e-001	1.089663e+000	1.088738e+000	9.468908e-001	9.102778e-001	8.994250e-001	8.932996e-001	9.659249e-001	1.023029e+000	1.005420e+000	9.885606e-001	9.739027e-001	9.132225e-001	9.178042e-001	9.230987e-001	9.275747e-001	9.325146e-001	8.646246e-001	8.640482e-001	8.621215e-001	8.665883e-001	8.708305e-001	1.078908e+000	1.078890e+000	1.077871e+000	6.295874e-001	6.359859e-001	6.399302e-001	6.472296e-001	6.517676e-001	9.054021e-001	9.272122e-001	7.184357e-001	7.231418e-001	7.873369e-001	7.997836e-001	8.122468e-001	1.036458e+000	1.029201e+000	1.024001e+000	1.019106e+000	1.016667e+000	1.014151e+000	1.013157e+000	1.011904e+000	1.010813e+000	1.009276e+000	1.003059e+000	9.984283e-001	1.008341e+000	7.328636e-001	6.002374e-001	7.313074e-001	7.356694e-001	7.437995e-001	7.480264e-001	7.568450e-001	7.641925e-001	7.724942e-001	9.499139e-001	9.730316e-001	9.566136e-001	9.621412e-001	9.714412e-001	9.558982e-001	9.594188e-001	9.983713e-001	1.026592e+000	1.054272e+000	8.246160e-001	8.374532e-001	8.519328e-001	8.692521e-001	8.868998e-001	6.597045e-001	6.647473e-001	6.728207e-001	6.795487e-001	1.059733e+000	1.051595e+000	9.662784e-001	9.644945e-001	8.787103e-001	8.851832e-001	8.921718e-001	8.972447e-001	1.125279e+000	1.111740e+000	1.164253e+000	1.280078e+000	1.148066e+000	1.087208e+000	1.079498e+000	1.228287e+000	1.071793e+000	1.105161e+000	1.088393e+000	1.254486e+000	1.064117e+000	1.143752e+000	6.967851e-001	1.131386e+000	1.135626e+000	1.206187e+000	1.123199e+000	1.087181e+000	9.615237e-001	1.077798e+000	9.119125e-001	1.073893e+000	1.063965e+000	9.657067e-001	9.310946e-001	8.785095e-001	1.221037e+000	9.426102e-001	9.564166e-001	9.439713e-001	8.068100e-001	1.075851e+000	1.043937e+000	1.247859e+000	1.109978e+000	1.086824e+000	1.125612e+000	1.076585e+000	1.309151e+000	1.238758e+000	1.090287e+000	9.531660e-001	6.334278e-001	6.404859e-001	1.082026e+000	1.134377e+000	1.092636e+000	1.282663e+000	1.141480e+000	1.046904e+000	1.203775e+000	1.184419e+000	6.164981e-001	1.083481e+000	1.069149e+000	1.064488e+000	6.245985e-001	7.097852e-001	7.232008e-001	9.560971e-001	1.160685e+000	1.184645e+000	1.103838e+000	9.967053e-001	1.015895e+000	9.688656e-001	1.036188e+000	1.052159e+000	1.085602e+000	1.093347e+000	9.492109e-001	1.079979e+000	1.083189e+000	8.885635e-001	1.087419e+000	9.521970e-001	9.542548e-001	9.151652e-001	9.026509e-001	9.646239e-001	1.029909e+000	1.012047e+000	9.957585e-001	9.850341e-001	9.210367e-001	9.298309e-001	9.371385e-001	8.740385e-001	8.786741e-001	1.075073e+000	1.073864e+000	6.516571e-001	6.637062e-001	9.411251e-001	7.366321e-001	8.260710e-001	1.008969e+000	1.031859e+000	1.022271e+000	1.016208e+000	1.013042e+000	1.010984e+000	1.006752e+000	1.003682e+000	9.971234e-001	1.000452e+000	1.022247e+000	9.038016e-001	6.420573e-001	6.032469e-001	7.500063e-001	7.633189e-001	7.765651e-001	7.824063e-001	7.941881e-001	9.641238e-001	9.859015e-001	9.607068e-001	9.703976e-001	9.838992e-001	9.546629e-001	9.581724e-001	1.008205e+000	1.033511e+000	1.059266e+000	1.084148e+000	8.408024e-001	8.541073e-001	8.683177e-001	8.852363e-001	9.058314e-001	9.194621e-001	6.760778e-001	6.879055e-001	1.060659e+000	1.054165e+000	9.661506e-001	9.635582e-001	9.601136e-001	8.902090e-001	9.020626e-001	1.084962e+000	1.128539e+000	1.122513e+000	1.097600e+000	1.011744e+000	1.079829e+000	1.128240e+000	1.102024e+000	1.174109e+000	1.120955e+000	1.110402e+000	1.096737e+000	1.151448e+000	1.227471e+000	1.235572e+000	1.070905e+000	9.581110e-001	7.047760e-001	1.089686e+000	1.044410e+000	1.084838e+000	9.449941e-001	1.129949e+000	1.156742e+000	9.418553e-001	1.072520e+000	9.653445e-001	9.632684e-001	1.083891e+000	1.085041e+000	1.067649e+000	1.052755e+000	1.125931e+000	1.075586e+000	1.077324e+000	1.066583e+000	7.296550e-001	6.090689e-001	9.607408e-001	9.772323e-001	1.108551e+000	1.114268e+000	1.288027e+000	1.082738e+000	1.068859e+000	1.142598e+000	1.086441e+000	1.210085e+000	1.138589e+000	9.601755e-001	1.220904e+000	9.680700e-001	9.531535e-001	1.074085e+000	1.259190e+000	1.081331e+000	1.088364e+000	9.586194e-001	1.260792e+000	1.141830e+000	9.925019e-001	1.205933e+000	1.190571e+000	6.