# vtk DataFile Version 3.0
vtk output
ASCII
DATASET UNSTRUCTURED_GRID
POINTS 5233 float
9.997500e-001	-3.633076e-005	0.0	9.990000e-001	-1.453669e-004	0.0	9.977600e-001	-3.263488e-004	0.0	9.960200e-001	-5.836551e-004	0.0	9.937800e-001	-9.243440e-004	0.0	9.910500e-001	-1.358860e-003	0.0	9.878400e-001	-1.900636e-003	0.0	9.841300e-001	-2.566465e-003	0.0	9.799500e-001	-3.354971e-003	0.0	9.752800e-001	-4.257406e-003	0.0	9.701500e-001	-5.236853e-003	0.0	9.645400e-001	-6.252413e-003	0.0	9.584700e-001	-7.253697e-003	0.0	9.519400e-001	-8.205379e-003	0.0	9.449600e-001	-9.091025e-003	0.0	9.375400e-001	-9.916113e-003	0.0	9.296900e-001	-1.070174e-002	0.0	9.214000e-001	-1.147661e-002	0.0	9.127000e-001	-1.226256e-002	0.0	9.035800e-001	-1.307705e-002	0.0	8.940600e-001	-1.392572e-002	0.0	8.841500e-001	-1.480823e-002	0.0	8.738500e-001	-1.572164e-002	0.0	8.631800e-001	-1.666103e-002	0.0	8.521600e-001	-1.762349e-002	0.0	8.407700e-001	-1.861265e-002	0.0	8.290500e-001	-1.962987e-002	0.0	8.170100e-001	-2.068136e-002	0.0	8.046400e-001	-2.177620e-002	0.0	7.919700e-001	-2.291995e-002	0.0	7.790100e-001	-2.411890e-002	0.0	7.657800e-001	-2.537659e-002	0.0	7.522800e-001	-2.669630e-002	0.0	7.385200e-001	-2.807804e-002	0.0	7.245300e-001	-2.951751e-002	0.0	7.103200e-001	-3.101029e-002	0.0	6.958900e-001	-3.255133e-002	0.0	6.812700e-001	-3.413099e-002	0.0	6.664700e-001	-3.574065e-002	0.0	6.515000e-001	-3.737090e-002	0.0	6.363800e-001	-3.901070e-002	0.0	6.211300e-001	-4.064872e-002	0.0	6.057600e-001	-4.227454e-002	0.0	5.902800e-001	-4.387777e-002	0.0	5.747100e-001	-4.544715e-002	0.0	5.590600e-001	-4.697282e-002	0.0	5.433600e-001	-4.844345e-002	0.0	5.276100e-001	-4.985129e-002	0.0	5.118400e-001	-5.118660e-002	0.0	4.960500e-001	-5.244318e-002	0.0	4.802700e-001	-5.361333e-002	0.0	4.645100e-001	-5.469206e-002	0.0	4.487800e-001	-5.567531e-002	0.0	4.331100e-001	-5.655891e-002	0.0	4.175000e-001	-5.734144e-002	0.0	4.019700e-001	-5.802121e-002	0.0	3.865400e-001	-5.859746e-002	0.0	3.712300e-001	-5.907019e-002	0.0	3.560400e-001	-5.944050e-002	0.0	3.409900e-001	-5.970912e-002	0.0	3.261100e-001	-5.987702e-002	0.0	3.114000e-001	-5.994567e-002	0.0	2.968700e-001	-5.991607e-002	0.0	2.825500e-001	-5.978911e-002	0.0	2.684500e-001	-5.956541e-002	0.0	2.545700e-001	-5.924483e-002	0.0	2.409400e-001	-5.882741e-002	0.0	2.275700e-001	-5.831241e-002	0.0	2.144700e-001	-5.769862e-002	0.0	2.016600e-001	-5.698496e-002	0.0	1.891400e-001	-5.616901e-002	0.0	1.769300e-001	-5.524933e-002	0.0	1.650400e-001	-5.422389e-002	0.0	1.534900e-001	-5.309179e-002	0.0	1.422900e-001	-5.185169e-002	0.0	1.314400e-001	-5.050146e-002	0.0	1.209500e-001	-4.904043e-002	0.0	1.108500e-001	-4.747201e-002	0.0	1.011300e-001	-4.579468e-002	0.0	9.181000e-002	-4.401268e-002	0.0	8.290000e-002	-4.213013e-002	0.0	7.440000e-002	-4.015013e-002	0.0	6.633000e-002	-3.808184e-002	0.0	5.869000e-002	-3.593112e-002	0.0	5.149000e-002	-3.370771e-002	0.0	4.474000e-002	-3.142305e-002	0.0	3.844000e-002	-2.908644e-002	0.0	3.260000e-002	-2.671163e-002	0.0	2.723000e-002	-2.431389e-002	0.0	2.232000e-002	-2.189963e-002	0.0	1.790000e-002	-1.949516e-002	0.0	1.395000e-002	-1.710061e-002	0.0	1.049000e-002	-1.473718e-002	0.0	7.520000e-003	-1.241320e-002	0.0	5.040000e-003	-1.013283e-002	0.0	3.050000e-003	-7.893137e-003	0.0	1.560000e-003	-5.695141e-003	0.0	5.600000e-004	-3.491637e-003	0.0	6.000000e-005	-1.211116e-003	0.0	0.000000e+000	0.000000e+000	0.0	6.000000e-005	1.274911e-003	0.0	5.600000e-004	3.780456e-003	0.0	1.560000e-003	6.252074e-003	0.0	3.050000e-003	8.729463e-003	0.0	5.040000e-003	1.124749e-002	0.0	7.520000e-003	1.379529e-002	0.0	1.049000e-002	1.637098e-002	0.0	1.395000e-002	1.896728e-002	0.0	1.790000e-002	2.157387e-002	0.0	2.232000e-002	2.416747e-002	0.0	2.723000e-002	2.674813e-002	0.0	3.260000e-002	2.928805e-002	0.0	3.844000e-002	3.178083e-002	0.0	4.474000e-002	3.421057e-002	0.0	5.149000e-002	3.656289e-002	0.0	5.869000e-002	3.882784e-002	0.0	6.633000e-002	4.099306e-002	0.0	7.440000e-002	4.304777e-002	0.0	8.290000e-002	4.498486e-002	0.0	9.181000e-002	4.679393e-002	0.0	1.011300e-001	4.847038e-002	0.0	1.108500e-001	5.000868e-002	0.0	1.209500e-001	5.140338e-002	0.0	1.314400e-001	5.265439e-002	0.0	1.422900e-001	5.375769e-002	0.0	1.534900e-001	5.471328e-002	0.0	1.650400e-001	5.552279e-002	0.0	1.769300e-001	5.618777e-002	0.0	1.891400e-001	5.671030e-002	0.0	2.016600e-001	5.709407e-002	0.0	2.144700e-001	5.734335e-002	0.0	2.275700e-001	5.746360e-002	0.0	2.409400e-001	5.746059e-002	0.0	2.545700e-001	5.734090e-002	0.0	2.684500e-001	5.711158e-002	0.0	2.825500e-001	5.678067e-002	0.0	2.968700e-001	5.635607e-002	0.0	3.114000e-001	5.584607e-002	0.0	3.261100e-001	5.525996e-002	0.0	3.409900e-001	5.460648e-002	0.0	3.560400e-001	5.389372e-002	0.0	3.712300e-001	5.313091e-002	0.0	3.865400e-001	5.232647e-002	0.0	4.019700e-001	5.148703e-002	0.0	4.175000e-001	5.061936e-002	0.0	4.331100e-001	4.972911e-002	0.0	4.487800e-001	4.882051e-002	0.0	4.645100e-001	4.789501e-002	0.0	4.802700e-001	4.695397e-002	0.0	4.960500e-001	4.599564e-002	0.0	5.118400e-001	4.501621e-002	0.0	5.276100e-001	4.401118e-002	0.0	5.433600e-001	4.297233e-002	0.0	5.590600e-001	4.189186e-002	0.0	5.747100e-001	4.075884e-002	0.0	5.902800e-001	3.956390e-002	0.0	6.057600e-001	3.829642e-002	0.0	6.211300e-001	3.694750e-002	0.0	6.363800e-001	3.550920e-002	0.0	6.515000e-001	3.397608e-002	0.0	6.664700e-001	3.234719e-002	0.0	6.812700e-001	3.062598e-002	0.0	6.958900e-001	2.881964e-002	0.0	7.103200e-001	2.694045e-002	0.0	7.245300e-001	2.500867e-002	0.0	7.385200e-001	2.304562e-002	0.0	7.522800e-001	2.107834e-002	0.0	7.657800e-001	1.914014e-002	0.0	7.790100e-001	1.726345e-002	0.0	7.919700e-001	1.547954e-002	0.0	8.046400e-001	1.382069e-002	0.0	8.170100e-001	1.231381e-002	0.0	8.290500e-001	1.098176e-002	0.0	8.407700e-001	9.834597e-003	0.0	8.521600e-001	8.875312e-003	0.0	8.631800e-001	8.098325e-003	0.0	8.738500e-001	7.483051e-003	0.0	8.841500e-001	7.002853e-003	0.0	8.940600e-001	6.624030e-003	0.0	9.035800e-001	6.309144e-003	0.0	9.127000e-001	6.022903e-003	0.0	9.214000e-001	5.736706e-003	0.0	9.296900e-001	5.431119e-003	0.0	9.375400e-001	5.099870e-003	0.0	9.449600e-001	4.745348e-003	0.0	9.519400e-001	4.376452e-003	0.0	9.584700e-001	4.002084e-003	0.0	9.645400e-001	3.626423e-003	0.0	9.701500e-001	3.246961e-003	0.0	9.752800e-001	2.859293e-003	0.0	9.799500e-001	2.457779e-003	0.0	9.841300e-001	2.047209e-003	0.0	9.878400e-001	1.635625e-003	0.0	9.910500e-001	1.242192e-003	0.0	9.937800e-001	8.821086e-004	0.0	9.960200e-001	5.719613e-004	0.0	9.977600e-001	3.241826e-004	0.0	9.990000e-001	1.451693e-004	0.0	9.997500e-001	3.632763e-005	0.0	1.000000e+000	0.000000e+000	0.0	1.984229e+001	2.506660e+000	0.0	1.937166e+001	4.973800e+000	0.0	1.859553e+001	7.362490e+000	0.0	1.752613e+001	9.635070e+000	0.0	1.618034e+001	1.175571e+001	0.0	1.457937e+001	1.369094e+001	0.0	1.274848e+001	1.541027e+001	0.0	1.071654e+001	1.688656e+001	0.0	8.515590e+000	1.809654e+001	0.0	6.180340e+000	1.902113e+001	0.0	3.747630e+000	1.964575e+001	0.0	1.255810e+000	1.996053e+001	0.0	-1.255810e+000	1.996053e+001	0.0	-3.747630e+000	1.964574e+001	0.0	-6.180340e+000	1.902113e+001	0.0	-8.515590e+000	1.809654e+001	0.0	-1.071654e+001	1.688656e+001	0.0	-1.274848e+001	1.541026e+001	0.0	-1.457937e+001	1.369094e+001	0.0	-1.618034e+001	1.175570e+001	0.0	-1.752613e+001	9.635070e+000	0.0	-1.859553e+001	7.362490e+000	0.0	-1.937166e+001	4.973800e+000	0.0	-1.984229e+001	2.506660e+000	0.0	-2.000000e+001	0.000000e+000	0.0	-1.984229e+001	-2.506670e+000	0.0	-1.937166e+001	-4.973800e+000	0.0	-1.859553e+001	-7.362490e+000	0.0	-1.752613e+001	-9.635080e+000	0.0	-1.618034e+001	-1.175571e+001	0.0	-1.457937e+001	-1.369094e+001	0.0	-1.274848e+001	-1.541027e+001	0.0	-1.071653e+001	-1.688656e+001	0.0	-8.515580e+000	-1.809654e+001	0.0	-6.180340e+000	-1.902113e+001	0.0	-3.747620e+000	-1.964575e+001	0.0	-1.255810e+000	-1.996053e+001	0.0	1.255810e+000	-1.996053e+001	0.0	3.747630e+000	-1.964574e+001	0.0	6.180340e+000	-1.902113e+001	0.0	8.515590e+000	-1.809654e+001	0.0	1.071654e+001	-1.688656e+001	0.0	1.274848e+001	-1.541026e+001	0.0	1.457937e+001	-1.369094e+001	0.0	1.618034e+001	-1.175570e+001	0.0	1.752614e+001	-9.635070e+000	0.0	1.859553e+001	-7.362490e+000	0.0	1.937166e+001	-4.973790e+000	0.0	1.984229e+001	-2.506660e+000	0.0	2.000000e+001	0.000000e+000	0.0	6.069386e-002	-4.392669e-002	0.0	6.603215e-001	-5.036710e-002	0.0	4.261084e-001	6.459918e-002	0.0	6.899868e-001	4.294146e-002	0.0	3.793296e-001	-7.277496e-002	0.0	9.994647e-001	-7.143492e-004	0.0	9.985533e-001	-1.307593e-003	0.0	7.736011e-001	-3.706600e-002	0.0	6.899069e-001	-4.687608e-002	0.0	-1.266938e-003	5.995295e-003	0.0	7.466476e-001	-4.018317e-002	0.0	5.836963e-001	5.431831e-002	0.0	9.928002e-001	-3.630931e-003	0.0	9.899063e-001	-4.565629e-003	0.0	5.992544e-001	5.297227e-002	0.0	7.187201e-001	-4.345964e-002	0.0	-1.448959e-003	7.563461e-004	0.0	9.865227e-001	-5.609362e-003	0.0	9.826578e-001	-6.754144e-003	0.0	-1.208008e-003	-5.544636e-003	0.0	6.452770e-001	-5.211862e-002	0.0	8.241576e-001	-3.133702e-002	0.0	7.994641e-001	-3.413399e-002	0.0	3.490295e-001	6.813293e-002	0.0	8.475510e-001	-2.865450e-002	0.0	2.476640e-001	6.987786e-002	0.0	8.695801e-001	-2.604057e-002	0.0	9.980772e-003	2.089569e-002	0.0	8.901378e-001	-2.349044e-002	0.0	7.695289e-002	-4.882364e-002	0.0	9.091507e-001	-2.101077e-002	0.0	-1.745041e-003	-2.752437e-003	0.0	9.422080e-001	-1.609808e-002	0.0	9.265357e-001	-1.857592e-002	0.0	1.803674e-002	-2.484809e-002	0.0	4.259933e-001	-7.114296e-002	0.0	8.587452e-001	-2.733766e-002	0.0	9.561077e-001	-1.347345e-002	0.0	9.783037e-001	-8.012791e-003	0.0	9.681608e-001	-1.070770e-002	0.0	1.582129e-001	-6.415671e-002	0.0	8.998444e-001	-2.224236e-002	0.0	7.602559e-001	-3.860255e-002	0.0	9.971336e-001	-2.047920e-003	0.0	5.993128e-001	-5.727170e-002	0.0	4.417091e-001	-7.036919e-002	0.0	5.366314e-001	-6.351219e-002	0.0	4.733043e-001	-6.848973e-002	0.0	5.049828e-001	-6.619111e-002	0.0	4.891326e-001	-6.739033e-002	0.0	1.248765e-001	-5.926362e-002	0.0	2.788920e-002	-3.049173e-002	0.0	3.947913e-001	-7.234756e-002	0.0	4.620174e-002	-3.872
[...]
POINT_DATA 5233

SCALARS Density float 1
LOOKUP_TABLE default
1.179112e+000	1.156356e+000	1.143143e+000	1.133295e+000	1.125197e+000	1.117479e+000	1.108211e+000	1.096295e+000	1.080957e+000	1.062510e+000	1.042220e+000	1.022639e+000	1.007162e+000	9.980092e-001	9.952199e-001	9.969912e-001	1.000919e+000	1.004982e+000	1.007983e+000	1.009569e+000	1.009963e+000	1.009628e+000	1.009041e+000	1.008552e+000	1.008339e+000	1.008397e+000	1.008614e+000	1.008796e+000	1.008746e+000	1.008282e+000	1.007259e+000	1.005578e+000	1.003185e+000	1.000059e+000	9.962459e-001	9.917498e-001	9.866557e-001	9.809777e-001	9.748052e-001	9.681776e-001	9.611621e-001	9.537717e-001	9.460748e-001	9.382814e-001	9.306965e-001	9.231009e-001	9.147121e-001	9.063310e-001	9.024859e-001	9.076411e-001	9.149440e-001	8.997371e-001	8.362373e-001	7.626522e-001	7.342467e-001	7.382715e-001	7.469311e-001	7.521997e-001	7.549166e-001	7.574738e-001	7.605251e-001	7.637776e-001	7.670035e-001	7.701811e-001	7.733915e-001	7.767130e-001	7.802187e-001	7.838949e-001	7.877241e-001	7.917649e-001	7.962694e-001	8.016199e-001	8.081006e-001	8.156651e-001	8.241087e-001	8.332989e-001	8.433946e-001	8.546520e-001	8.670935e-001	8.806948e-001	8.954919e-001	9.114324e-001	9.285327e-001	9.467422e-001	9.660477e-001	9.864697e-001	1.007946e+000	1.030481e+000	1.054140e+000	1.078848e+000	1.104751e+000	1.132099e+000	1.160968e+000	1.191947e+000	1.225455e+000	1.261542e+000	1.297832e+000	1.337863e+000	1.352161e+000	1.347652e+000	1.343776e+000	1.316121e+000	1.259861e+000	1.211520e+000	1.164936e+000	1.122141e+000	1.083376e+000	1.047980e+000	1.015081e+000	9.844093e-001	9.555814e-001	9.282329e-001	9.023879e-001	8.778682e-001	8.545970e-001	8.325949e-001	8.117255e-001	7.918472e-001	7.730079e-001	7.552464e-001	7.387184e-001	7.235276e-001	7.095550e-001	6.964177e-001	6.838783e-001	6.720579e-001	6.614825e-001	6.521997e-001	6.439057e-001	6.361683e-001	6.289962e-001	6.225991e-001	6.172632e-001	6.130032e-001	6.097593e-001	6.073634e-001	6.056706e-001	6.046060e-001	6.040272e-001	6.039011e-001	6.041964e-001	6.049900e-001	6.063848e-001	6.081757e-001	6.101562e-001	6.118231e-001	6.134715e-001	6.155227e-001	6.193201e-001	6.211588e-001	6.174989e-001	6.325798e-001	7.529844e-001	9.435141e-001	9.946913e-001	9.818902e-001	9.713065e-001	9.707776e-001	9.714005e-001	9.723603e-001	9.750763e-001	9.798210e-001	9.860716e-001	9.936907e-001	1.002328e+000	1.011757e+000	1.021512e+000	1.031296e+000	1.040663e+000	1.049362e+000	1.057026e+000	1.063387e+000	1.068227e+000	1.071341e+000	1.072640e+000	1.072085e+000	1.069733e+000	1.065811e+000	1.060699e+000	1.054966e+000	1.049342e+000	1.044558e+000	1.041196e+000	1.039488e+000	1.039244e+000	1.039905e+000	1.040879e+000	1.041860e+000	1.043090e+000	1.045283e+000	1.049405e+000	1.056142e+000	1.065637e+000	1.077521e+000	1.090887e+000	1.105615e+000	1.121387e+000	1.139314e+000	1.159594e+000	1.153737e+000	9.989746e-001	9.997421e-001	9.998435e-001	9.997507e-001	9.996981e-001	9.996292e-001	9.995444e-001	9.994359e-001	9.993158e-001	9.992348e-001	9.991962e-001	9.992567e-001	9.993936e-001	9.996382e-001	9.998401e-001	1.000000e+000	1.000088e+000	1.000141e+000	1.000171e+000	1.000184e+000	1.000190e+000	1.000192e+000	1.000193e+000	1.000197e+000	1.000201e+000	1.000208e+000	1.000222e+000	1.000239e+000	1.000265e+000	1.000302e+000	1.000343e+000	1.000408e+000	1.000470e+000	1.000571e+000	1.000658e+000	1.000756e+000	1.000851e+000	1.000874e+000	1.000869e+000	1.000795e+000	1.000719e+000	1.000612e+000	1.000512e+000	1.000413e+000	1.000326e+000	1.000213e+000	1.000118e+000	1.000156e+000	9.994477e-001	9.984715e-001	9.525582e-001	9.719557e-001	6.113119e-001	9.869602e-001	7.560314e-001	1.158922e+000	1.147662e+000	1.005540e+000	9.836934e-001	1.297323e+000	1.000767e+000	9.923921e-001	1.117891e+000	1.109120e+000	9.768027e-001	9.934170e-001	1.343164e+000	1.098922e+000	1.086564e+000	1.321450e+000	9.654665e-001	1.008621e+000	1.007920e+000	6.064578e-001	1.008788e+000	6.226408e-001	1.009454e+000	1.092927e+000	1.010428e+000	9.175662e-001	1.009770e+000	1.343028e+000	1.002208e+000	1.005789e+000	1.108951e+000	7.431043e-001	1.009025e+000	1.010648e+000	1.071794e+000	1.037860e+000	8.212849e-001	1.010463e+000	1.003471e+000	1.135630e+000	9.439333e-001	7.933887e-001	9.129907e-001	9.220189e-001	9.077734e-001	9.187475e-001	8.496616e-001	1.058693e+000	7.491157e-001	9.917813e-001	7.400800e-001	7.677251e-001	7.615340e-001	1.035317e+000	7.743200e-001	1.003355e+000	8.299526e-001	8.017638e-001	9.017261e-001	8.733526e-001	9.294691e-001	8.136242e-001	9.513751e-001	1.009989e+000	1.083209e+000	1.126395e+000	1.195059e+000	1.025221e+000	1.008163e+000	1.004119e+000	1.055123e+000	1.256907e+000	1.008690e+000	7.847603e-001	9.217405e-001	9.973952e-001	1.006998e+000	8.609161e-001	7.927436e-001	9.366146e-001	9.780530e-001	9.716473e-001	1.227099e+000	1.136042e+000	7.591038e-001	8.071657e-001	1.192022e+000	7.886516e-001	8.869859e-001	7.710377e-001	7.810953e-001	8.805762e-001	9.888225e-001	1.331834e+000	1.293458e+000	6.524745e-001	1.345509e+000	9.657454e-001	8.648508e-001	9.125569e-001	7.329911e-001	6.096428e-001	1.113563e+000	6.200939e-001	6.177787e-001	1.047918e+000	1.044106e+000	1.061333e+000	6.210482e-001	6.130358e-001	6.069893e-001	1.045049e+000	1.052486e+000	8.018068e-001	1.051627e+000	1.043000e+000	1.042116e+000	7.649522e-001	8.428063e-001	6.115803e-001	6.180449e-001	6.692216e-001	6.079575e-001	6.144711e-001	6.081043e-001	6.920365e-001	7.186535e-001	9.754052e-001	6.507161e-001	6.349449e-001	9.779680e-001	1.002039e+000	1.018081e+000	1.001016e+000	1.051060e+000	1.035593e+000	1.067997e+000	1.062358e+000	1.057015e+000	1.067399e+000	1.042249e+000	1.048327e+000	1.045617e+000	1.068464e+000	1.064927e+000	1.057340e+000	1.065948e+000	1.026963e+000	1.043745e+000	9.934997e-001	1.009344e+000	9.761481e-001	9.817236e-001	8.798010e-001	9.744543e-001	6.425124e-001	6.283173e-001	6.800487e-001	6.595942e-001	8.880534e-001	7.050610e-001	1.057870e+000	9.384395e-001	7.970637e-001	1.170875e+000	1.022263e+000	1.008416e+000	7.644563e-001	9.062576e-001	1.213977e+000	9.945911e-001	1.130486e+000	7.828279e-001	8.217934e-001	6.143824e-001	7.483445e-001	1.057300e+000	1.065141e+000	6.094743e-001	1.075119e+000	1.086645e+000	6.070011e-001	6.064244e-001	1.042967e+000	1.172457e+000	1.129403e+000	1.144531e+000	9.585969e-001	1.013017e+000	1.099540e+000	6.198509e-001	1.260647e+000	1.164741e+000	9.345139e-001	8.394105e-001	7.776414e-001	8.327426e-001	1.276106e+000	1.310053e+000	7.827520e-001	9.859745e-001	1.010555e+000	1.189290e+000	9.976791e-001	9.808605e-001	1.005425e+000	1.100359e+000	7.725036e-001	1.009430e+000	1.008703e+000	9.085133e-001	1.301421e+000	8.033417e-001	1.134548e+000	1.023986e+000	8.368206e-001	9.906133e-001	9.693387e-001	8.473715e-001	9.240876e-001	7.594128e-001	1.011257e+000	1.006754e+000	1.129220e+000	1.030828e+000	9.842917e-001	1.062947e+000	7.598931e-001	9.885436e-001	6.904113e-001	1.062963e+000	1.073083e+000	6.110354e-001	6.109771e-001	1.045236e+000	1.060725e+000	1.082465e+000	1.046292e+000	1.058495e+000	6.363162e-001	6.126603e-001	6.432078e-001	7.763920e-001	9.753092e-001	8.084469e-001	1.094575e+000	7.153759e-001	8.981517e-001	1.050256e+000	1.093289e+000	1.057741e+000	8.280532e-001	1.185991e+000	1.118003e+000	1.105041e+000	1.165439e+000	1.241048e+000	1.218062e+000	1.337884e+000	1.338114e+000	1.108836e+000	1.194667e+000	9.582149e-001	1.136756e+000	1.118248e+000	6.115388e-001	9.209048e-001	1.089808e+000	1.010443e+000	9.815055e-001	1.109643e+000	1.325080e+000	7.736745e-001	6.106066e-001	1.009057e+000	6.210251e-001	1.009907e+000	1.010956e+000	9.406520e-001	1.011160e+000	1.009533e+000	1.010244e+000	1.060849e+000	1.015273e+000	1.035962e+000	1.077659e+000	8.569385e-001	1.001188e+000	1.003591e+000	1.127041e+000	9.099527e-001	9.222803e-001	9.140366e-001	1.084404e+000	7.507062e-001	7.471683e-001	7.693414e-001	1.016881e+000	1.008521e+000	1.008366e+000	8.465197e-001	8.939621e-001	9.283695e-001	9.493838e-001	1.049849e+000	1.064141e+000	9.946777e-001	9.982507e-001	8.805543e-001	8.682300e-001	9.353312e-001	9.422970e-001	9.963984e-001	9.768451e-001	1.161254e+000	7.666459e-001	7.639233e-001	8.205290e-001	8.140927e-001	7.986427e-001	7.942618e-001	7.792840e-001	7.758742e-001	7.901744e-001	1.332397e+000	1.247702e+000	9.220002e-001	1.064937e+000	6.268394e-001	6.231911e-001	6.201928e-001	6.171520e-001	1.053673e+000	1.047916e+000	1.048241e+000	6.143796e-001	6.129232e-001	6.100029e-001	1.051084e+000	1.044757e+000	8.535033e-001	8.753344e-001	6.303917e-001	6.252427e-001	7.023429e-001	7.296483e-001	7.444305e-001	1.045358e+000	1.015331e+000	1.007708e+000	1.038563e+000	1.060324e+000	1.054392e+000	1.064175e+000	1.064191e+000	1.056486e+000	1.051442e+000	1.031031e+000	1.023268e+000	1.000455e+000	9.941014e-001	9.812505e-001	9.801386e-001	9.794685e-001	7.666702e-001	9.797538e-001	9.787593e-001	6.508746e-001	6.596307e-001	6.691563e-001	6.795203e-001	1.061892e+000	9.471253e-001	9.737233e-001	1.007677e+000	1.008290e+000	9.096834e-001	9.134667e-001	1.203458e+000	1.001618e+000	7.940738e-001	8.128957e-001	6.147604e-001	6.175290e-001	6.097871e-001	6.100778e-001	1.045015e+000	1.046164e+000	9.563532e-001	9.630240e-001	1.038334e+000	1.276594e+000	7.863546e-001	1.303991e+000	7.630610e-001	7.884337e-001	1.005430e+000	9.211954e-001	1.012454e+000	1.079833e+000	1.071909e+000	1.049899e+000	1.193780e+000	1.089220e+000	1.131318e+000	1.149984e+000	1.127114e+000	1.174805e+000	1.108994e+000	1.312018e+000	9.161879e-001	1.012476e+000	1.102109e+000	1.003844e+000	1.148484e+000	1.209363e+000	9.880564e-001	1.260811e+000	9.921800e-001	1.132807e+000	1.010888e+000	1.183303e+000	7.780172e-001	1.010259e+000	9.834996e-001	1.110918e+000	1.157827e+000	1.059570e+000	6.147965e-001	1.047366e+000	9.872562e-001	1.098833e+000	6.175650e-001	6.331877e-001	6.177074e-001	7.145544e-001	8.654242e-001	1.141768e+000	1.280774e+000	1.255033e+000	1.065604e+000	1.287741e+000	1.036024e+000	9.314422e-001	1.330644e+000	8.441032e-001	8.882627e-001	1.085850e+000	1.127676e+000	1.057749e+000	1.040312e+000	9.904922e-001	1.065118e+000	1.048322e+000	1.057236e+000	1.059084e+000	6.205252e-001	6.281550e-001	6.525134e-001	7.894536e-001	9.730452e-001	9.784366e-001	8.153899e-001	1.096165e+000	7.271769e-001	1.055328e+000	1.108548e+000	1.160381e+000	1.226712e+000	1.235338e+000	1.317904e+000	1.063320e+000	1.164611e+000	1.154948e+000	1.047371e+000	1.092957e+000	9.929632e-001	8.155995e-001	6.133071e-001	1.009063e+000	1.009637e+000	1.011538e+000	1.012071e+000	9.647062e-001	9.476568e-001	1.012430e+000	1.012544e+000	1.019537e+000	1.026500e+000	1.082815e+000	1.001644e+000	1.003720e+000	1.118858e+000	9.214040e-001	9.208097e-001	7.566362e-001	7.648381e-001	1.041956e+000	1.013131e+000	1.015228e+000	8.648456e-001	8.540812e-001	9.279970e-001	9.347082e-001	1.059516e+000	1.071492e+000	9.958356e-001	9.989433e-001	9.018852e-001	8.884044e-001	8.760907e-001	9.413667e-001	9.480614e-001	1.021600e+000	1.001796e+000	9.827149e-001	7.749818e-001	7.723799e-001	7.688563e-001	8.355421e-001	8.280884e-001	8.214267e-001	8.099341e-001	8.049493e-001	7.848497e-001	7.813656e-001	8.003685e-001	9.325202e-001	6.220124e-001	6.207144e-001	1.052166e+000	6.173024e-001	6.151285e-001	6.139366e-001	6.132835e-001	1.050292e+000	8.868424e-001	9.093050e-001	6.387879e-001	6.454038e-001	7.411290e-001	7.568892e-001	7.730863e-001	1.013386e+000	1.052525e+000	1.054950e+000	1.060227e+000	1.060492e+000	1.059756e+000	1.054847e+000	1.050892e+000	1.046005e+000	1.034060e+000	1.027309e+000	1.020391e+000	1.006849e+000	1.000540e+000	9.952780e-001	9.849980e-001	9.110904e-001	6.714185e-001	9.848724e-001	9.843891e-001	9.844344e-001	6.606009e-001	6.693588e-001	6.795481e-001	6.905966e-001	7.025310e-001	9.565247e-001	9.819991e-001	1.006697e+000	1.007675e+000	1.008427e+000	9.149740e-001	9.156615e-001	1.008945e+000	1.036637e+000	8.067983e-001	8.253870e-001	8.449472e-001	6.240283e-001	6.137667e-001	6.145030e-001	6.157194e-001	1.047040e+000	1.047418e+000	1.048523e+000	9.547164e-001	9.611452e-001	9.672407e-001	7.961247e-001	7.921679e-001	1.283560e+000	9.242144e-001	1.101629e+000	1.065201e+000	9.272654e-001	1.290825e+000	1.134731e+000	1.015689e+000	1.017112e+000	1.065065e+000	1.085194e+000	6.185555e-001	1.262049e+000	1.096072e+000	1.198726e+000	1.051546e+000	1.093285e+000	1.236583e+000	9.889526e-001	1.211607e+000	1.153333e+000	1.167136e+000	1.005662e+000	8.529719e-001	1.108220e+000	7.701451e-001	9.392042e-001	8.614584e-001	7.953615e-001	1.070984e+000	9.824400e-001	1.050025e+000	1.049120e+000	1.035297e+000	7.418283e-001	6.499851e-001	1.095354e+000	8.982206e-001	1.011333e+000	1.118165e+000	1.077666e+000	1.118838e+000	1.056537e+000	1.129913e+000	9.858156e-001	1.221861e+000	9.898243e-001	9.937166e-001	1.152794e+000	1.103499e+000	1.175888e+000	1.052897e+000	6.142900e-001	6.325778e-001	1.265829e+000	1.124629e+000	9.922092e-001	1.055451e+000	6.286003e-001	6.378596e-001	6.432363e-001	9.763303e-001	9.811877e-001	1.060401e+000	1.153343e+000	1.182907e+000	1.244080e+000	1.297943e+000	1.086303e+000	1.046378e+000	1.086571e+000	1.005369e+000	1.009679e+000	1.010516e+000	1.012150e+000	1.012917e+000	9.712935e-001	9.548572e-001	1.013609e+000	1.014252e+000	1.014891e+000	1.029291e+000	1.037102e+000	1.002050e+000	1.003822e+000	1.111334e+000	9.099089e-001	9.231625e-001	7.719490e-001	8.004233e-001	1.019449e+000	1.023370e+000	8.737007e-001	8.622960e-001	9.341356e-001	1.066882e+000	1.077043e+000	9.966295e-001	9.999021e-001	9.100879e-001	8.970226e-001	8.852167e-001	9.405200e-001	9.472694e-001	1.045550e+000	1.025959e+000	1.006627e+000	9.883796e-001	7.849193e-001	7.818887e-001	7.789620e-001	7.747923e-001	8.447267e-001	8.370817e-001	8.300467e-001	8.236069e-001	8.178678e-001	7.881378e-001	7.917159e-001	8.126045e-001	6.229820e-001	1.056627e+000	1.053702e+000	6.213373e-001	6.195243e-001	6.177662e-001	6.172568e-001	6.178131e-001	9.201798e-001	9.430998e-001	6.566855e-001	6.648827e-001	7.552214e-001	7.700608e-001	7.867690e-001	8.038762e-001	1.051194e+000	1.052654e+000	1.054227e+000	1.056365e+000	1.056550e+000	1.056196e+000	1.054121e+000	1.049671e+000	1.045020e+000	1.041212e+000	1.029988e+000	1.023554e+000	1.017625e+000	1.011438e+000	1.005630e+000	1.000499e+000	9.956815e-001	6.403497e-001	7.907827e-001	9.873619e-001	9.860660e-001	9.862539e-001	9.910142e-001	6.728427e-001	6.822833e-001	6.917023e-001	7.031178e-001	7.150279e-001	7.281796e-001	9.660692e-001	9.895624e-001	1.006735e+000	1.008005e+000	1.008875e+000	9.205013e-001	9.181754e-001	9.220306e-001	1.015175e+000	1.041571e+000	1.067976e+000	8.208871e-001	8.386054e-001	8.577835e-001	8.776688e-001	6.187712e-001	6.206064e-001	6.225363e-001	6.249888e-001	1.049920e+000	1.048816e+000	1.049116e+000	9.533914e-001	9.596709e-001	9.654272e-001	9.710476e-001	8.078386e-001	8.033658e-001	7.992839e-001	1.147627e+000	1.097756e+000	1.054862e+000	1.146315e+000	1.168575e+000	9.928942e-001	9.327365e-001	1.188889e+000	1.065100e+000	1.228717e+000	1.086264e+000	8.637352e-001	7.721901e-001	1.121600e+000	1.198142e+000	1.265945e+000	1.310117e+000	1.310318e+000	1.300726e+000	1.245047e+000	1.114092e+000	6.429317e-001	1.063716e+000	1.097153e+000	1.023111e+000	1.004859e+000	7.848431e-001	1.088532e+000	1.050319e+000	1.050301e+000	7.794969e-001	6.221495e-001	9.898573e-001	1.027683e+000	6.175492e-001	9.295881e-001	6.361836e-001	1.081987e+000	9.473042e-001	1.135146e+000	1.070053e+000	1.303673e+000	1.160379e+000	1.150150e+000	1.019722e+000	1.067390e+000	1.262904e+000	1.095597e+000	1.209120e+000	1.052689e+000	1.220363e+000	1.147997e+000	1.153994e+000	1.127156e+000	7.981815e-001	8.032428e-001	1.075657e+000	1.001771e+000	1.051215e+000	1.089372e+000	9.855452e-001	1.244669e+000	6.468276e-001	6.553282e-001	6.602305e-001	9.766216e-001	1.147092e+000	1.172886e+000	1.275882e+000	1.107267e+000	1.010702e+000	1.011532e+000	1.012692e+000	1.013560e+000	9.623668e-001	9.785457e-001	1.014825e+000	1.015552e+000	1.016997e+000	1.018501e+000	1.038576e+000	1.046338e+000	1.001464e+000	1.104230e+000	8.897338e-001	9.169794e-001	7.957936e-001	8.382545e-001	1.026934e+000	1.031946e+000	8.823109e-001	8.702828e-001	1.072632e+000	1.081260e+000	9.978668e-001	9.185608e-001	9.050203e-001	8.961744e-001	9.424749e-001	1.048893e+000	1.030226e+000	1.011781e+000	9.950583e-001	7.959433e-001	7.914316e-001	7.897823e-001	7.853067e-001	7.830361e-001	8.533813e-001	8.473101e-001	8.378996e-001	8.329420e-001	8.251758e-001	1.060897e+000	1.057493e+000	1.054775e+000	6.241813e-001	6.236503e-001	6.224779e-001	6.225947e-001	6.219579e-001	9.314526e-001	9.536953e-001	6.703547e-001	6.763636e-001	7.824986e-001	8.006088e-001	8.186908e-001	1.050861e+000	1.051834e+000	1.052207e+000	1.053105e+000	1.052575e+000	1.052870e+000	1.050879e+000	1.048354e+000	1.043733e+000	1.037362e+000	1.016805e+000	1.006179e+000	9.972728e-001	9.854251e-001	9.982367e-001	6.880438e-001	6.947968e-001	7.078468e-001	7.155252e-001	7.303242e-001	7.431582e-001	7.572932e-001	9.759261e-001	9.978216e-001	1.007301e+000	1.008574e+000	1.009468e+000	9.258264e-001	9.235038e-001	1.020921e+000	1.046160e+000	1.070540e+000	8.361925e-001	8.534280e-001	8.714547e-001	8.915655e-001	9.114456e-001	6.244907e-001	6.257835e-001	6.300173e-001	6.335893e-001	1.049859e+000	1.049851e+000	9.552452e-001	9.664725e-001	8.212344e-001	8.146703e-001	8.115017e-001	8.058653e-001	1.141494e+000	1.125550e+000	1.179077e+000	1.276853e+000	1.158918e+000	1.069096e+000	1.079173e+000	1.225924e+000	1.055243e+000	1.117045e+000	1.084289e+000	1.256888e+000	1.086310e+000	1.160769e+000	6.490128e-001	1.146496e+000	1.140744e+000	1.205101e+000	1.142117e+000	1.061417e+000	9.289125e-001	1.073796e+000	8.078141e-001	1.029528e+000	1.023841e+000	9.622455e-001	9.409001e-001	8.680243e-001	1.228497e+000	8.167051e-001	9.710478e-001	9.562749e-001	8.067789e-001	1.064573e+000	1.049449e+000	1.245013e+000	1.117850e+000	1.053894e+000	1.140274e+000	1.068855e+000	1.306726e+000	1.243652e+000	1.091469e+000	9.948626e-001	6.208270e-001	6.249643e-001	1.084867e+000	1.147256e+000	1.101604e+000	1.282222e+000	1.154095e+000	1.069358e+000	1.213680e+000	1.196838e+000	9.184743e-001	1.104988e+000	1.053323e+000	1.051739e+000	6.668286e-001	6.617422e-001	6.774820e-001	9.889096e-001	1.163296e+000	1.185126e+000	1.124249e+000	1.012359e+000	1.014822e+000	9.855684e-001	1.017645e+000	1.020723e+000	1.046661e+000	1.098303e+000	8.807752e-001	1.034506e+000	1.040061e+000	8.854478e-001	1.076745e+000	9.991083e-001	1.002613e+000	9.214328e-001	9.045974e-001	9.377576e-001	1.052024e+000	1.033381e+000	1.016145e+000	1.003706e+000	8.009881e-001	7.952626e-001	7.968421e-001	8.514223e-001	8.371805e-001	1.060893e+000	1.057822e+000	6.271333e-001	6.291716e-001	9.631652e-001	6.956512e-001	8.327111e-001	1.036773e+000	1.049639e+000	1.049522e+000	1.048347e+000	1.045294e+000	1.041807e+000	1.029474e+000	1.020261e+000	1.010547e+000	1.001973e+000	9.942443e-001	9.864591e-001	9.917934e-001	1.011053e+000	7.161975e-001	7.382148e-001	7.599088e-001	7.702264e-001	7.878901e-001	9.855445e-001	1.006182e+000	1.005872e+000	1.008489e+000	1.010503e+000	9.228944e-001	9.285512e-001	1.026722e+000	1.049650e+000	1.072732e+000	1.094895e+000	8.519149e-001	8.689153e-001	8.859159e-001	9.047589e-001	9.269003e-001	9.418304e-001	6.340038e-001	6.417875e-001	1.050591e+000	1.049819e+000	9.507238e-001	9.721532e-001	9.811422e-001	8.254985e-001	8.159208e-001	1.090103e+000	1.142405e+000	1.137128e+000	1.108134e+000	1.029806e+000	1.081457e+000	1.143070e+000	1.112069e+000	1.185210e+000	1.136963e+000	1.123508e+000	1.103912e+000	1.154396e+000	1.225672e+000	1.238706e+000	1.060406e+000	9.964594e-001	6.588609e-001	1.097290e+000	1.021676e+000	1.102944e+000	9.636357e-001	1.134802e+000	1.169671e+000	8.186329e-001	1.036151e+000	9.681626e-001	9.354818e-001	1.066391e+000	1.073052e+000	1.086273e+000	1.071399e+000	1.140699e+000	1.071761e+000	1.076285e+000	1.055164e+000	6.872792e-001	9.979023e-001	9.849500e-001	9.919316e-001	1.121536e+000	1.127867e+000	1.285957e+000	1.059705e+000	1.057519e+000	1.153325e+000	1.079769e+000	1.208953e+000	1.153175e+000	9.305125e-001	1.226063e+000	9.809253e-001	9.637408e-001	1.067502e+000	1.256677e+000	1.053242e+000	1.086246e+000	9.915220e-001	1.261333e+000	1.153736e+000	1.008605e+000	1.213129e+000	1.199715e+000	6.