# vtk DataFile Version 3.0
vtk output
ASCII
DATASET UNSTRUCTURED_GRID
POINTS 5233 float
9.997500e-001	-3.632641e-005	0.0	9.990000e-001	-1.450921e-004	0.0	9.977600e-001	-3.233365e-004	0.0	9.960200e-001	-5.674011e-004	0.0	9.937800e-001	-8.656795e-004	0.0	9.910500e-001	-1.196978e-003	0.0	9.878400e-001	-1.533491e-003	0.0	9.841300e-001	-1.848784e-003	0.0	9.799500e-001	-2.119380e-003	0.0	9.752800e-001	-2.342614e-003	0.0	9.701500e-001	-2.534792e-003	0.0	9.645400e-001	-2.733368e-003	0.0	9.584700e-001	-2.983086e-003	0.0	9.519400e-001	-3.325770e-003	0.0	9.449600e-001	-3.790165e-003	0.0	9.375400e-001	-4.390404e-003	0.0	9.296900e-001	-5.130723e-003	0.0	9.214000e-001	-6.014946e-003	0.0	9.127000e-001	-7.045621e-003	0.0	9.035800e-001	-8.233922e-003	0.0	8.940600e-001	-9.589324e-003	0.0	8.841500e-001	-1.111996e-002	0.0	8.738500e-001	-1.282928e-002	0.0	8.631800e-001	-1.470872e-002	0.0	8.521600e-001	-1.674037e-002	0.0	8.407700e-001	-1.890632e-002	0.0	8.290500e-001	-2.117248e-002	0.0	8.170100e-001	-2.350822e-002	0.0	8.046400e-001	-2.588743e-002	0.0	7.919700e-001	-2.827896e-002	0.0	7.790100e-001	-3.065966e-002	0.0	7.657800e-001	-3.300939e-002	0.0	7.522800e-001	-3.531633e-002	0.0	7.385200e-001	-3.757097e-002	0.0	7.245300e-001	-3.976405e-002	0.0	7.103200e-001	-4.189199e-002	0.0	6.958900e-001	-4.395377e-002	0.0	6.812700e-001	-4.594432e-002	0.0	6.664700e-001	-4.786104e-002	0.0	6.515000e-001	-4.970025e-002	0.0	6.363800e-001	-5.145579e-002	0.0	6.211300e-001	-5.312042e-002	0.0	6.057600e-001	-5.468699e-002	0.0	5.902800e-001	-5.614752e-002	0.0	5.747100e-001	-5.749279e-002	0.0	5.590600e-001	-5.871465e-002	0.0	5.433600e-001	-5.980415e-002	0.0	5.276100e-001	-6.075562e-002	0.0	5.118400e-001	-6.156289e-002	0.0	4.960500e-001	-6.222313e-002	0.0	4.802700e-001	-6.273401e-002	0.0	4.645100e-001	-6.309609e-002	0.0	4.487800e-001	-6.331167e-002	0.0	4.331100e-001	-6.338475e-002	0.0	4.175000e-001	-6.332128e-002	0.0	4.019700e-001	-6.312855e-002	0.0	3.865400e-001	-6.281523e-002	0.0	3.712300e-001	-6.239114e-002	0.0	3.560400e-001	-6.186611e-002	0.0	3.409900e-001	-6.125083e-002	0.0	3.261100e-001	-6.055674e-002	0.0	3.114000e-001	-5.979378e-002	0.0	2.968700e-001	-5.897181e-002	0.0	2.825500e-001	-5.810126e-002	0.0	2.684500e-001	-5.719072e-002	0.0	2.545700e-001	-5.624713e-002	0.0	2.409400e-001	-5.527843e-002	0.0	2.275700e-001	-5.429022e-002	0.0	2.144700e-001	-5.328692e-002	0.0	2.016600e-001	-5.227264e-002	0.0	1.891400e-001	-5.124877e-002	0.0	1.769300e-001	-5.021718e-002	0.0	1.650400e-001	-4.917786e-002	0.0	1.534900e-001	-4.813065e-002	0.0	1.422900e-001	-4.707356e-002	0.0	1.314400e-001	-4.600259e-002	0.0	1.209500e-001	-4.491367e-002	0.0	1.108500e-001	-4.380405e-002	0.0	1.011300e-001	-4.266584e-002	0.0	9.181000e-002	-4.149366e-002	0.0	8.290000e-002	-4.028033e-002	0.0	7.440000e-002	-3.901653e-002	0.0	6.633000e-002	-3.769525e-002	0.0	5.869000e-002	-3.630595e-002	0.0	5.149000e-002	-3.483924e-002	0.0	4.474000e-002	-3.328567e-002	0.0	3.844000e-002	-3.163335e-002	0.0	3.260000e-002	-2.987269e-002	0.0	2.723000e-002	-2.799509e-002	0.0	2.232000e-002	-2.598482e-002	0.0	1.790000e-002	-2.384357e-002	0.0	1.395000e-002	-2.155205e-002	0.0	1.049000e-002	-1.911291e-002	0.0	7.520000e-003	-1.652185e-002	0.0	5.040000e-003	-1.377709e-002	0.0	3.050000e-003	-1.087971e-002	0.0	1.560000e-003	-7.857271e-003	0.0	5.600000e-004	-4.710708e-003	0.0	6.000000e-005	-1.507656e-003	0.0	0.000000e+000	0.000000e+000	0.0	6.000000e-005	1.180510e-003	0.0	5.600000e-004	3.265217e-003	0.0	1.560000e-003	5.133635e-003	0.0	3.050000e-003	6.892258e-003	0.0	5.040000e-003	8.614358e-003	0.0	7.520000e-003	1.032897e-002	0.0	1.049000e-002	1.206426e-002	0.0	1.395000e-002	1.383931e-002	0.0	1.790000e-002	1.566673e-002	0.0	2.232000e-002	1.754577e-002	0.0	2.723000e-002	1.948873e-002	0.0	3.260000e-002	2.148375e-002	0.0	3.844000e-002	2.353166e-002	0.0	4.474000e-002	2.562279e-002	0.0	5.149000e-002	2.774538e-002	0.0	5.869000e-002	2.988880e-002	0.0	6.633000e-002	3.203758e-002	0.0	7.440000e-002	3.417518e-002	0.0	8.290000e-002	3.628673e-002	0.0	9.181000e-002	3.835188e-002	0.0	1.011300e-001	4.035507e-002	0.0	1.108500e-001	4.227851e-002	0.0	1.209500e-001	4.410341e-002	0.0	1.314400e-001	4.581731e-002	0.0	1.422900e-001	4.740222e-002	0.0	1.534900e-001	4.884552e-002	0.0	1.650400e-001	5.013745e-002	0.0	1.769300e-001	5.126876e-002	0.0	1.891400e-001	5.223169e-002	0.0	2.016600e-001	5.302200e-002	0.0	2.144700e-001	5.363738e-002	0.0	2.275700e-001	5.407899e-002	0.0	2.409400e-001	5.434946e-002	0.0	2.545700e-001	5.445418e-002	0.0	2.684500e-001	5.440054e-002	0.0	2.825500e-001	5.419819e-002	0.0	2.968700e-001	5.385821e-002	0.0	3.114000e-001	5.339293e-002	0.0	3.261100e-001	5.281646e-002	0.0	3.409900e-001	5.214296e-002	0.0	3.560400e-001	5.138620e-002	0.0	3.712300e-001	5.056122e-002	0.0	3.865400e-001	4.968213e-002	0.0	4.019700e-001	4.876091e-002	0.0	4.175000e-001	4.780938e-002	0.0	4.331100e-001	4.683786e-002	0.0	4.487800e-001	4.585490e-002	0.0	4.645100e-001	4.486584e-002	0.0	4.802700e-001	4.387596e-002	0.0	4.960500e-001	4.288727e-002	0.0	5.118400e-001	4.189995e-002	0.0	5.276100e-001	4.091374e-002	0.0	5.433600e-001	3.992504e-002	0.0	5.590600e-001	3.893100e-002	0.0	5.747100e-001	3.792602e-002	0.0	5.902800e-001	3.690594e-002	0.0	6.057600e-001	3.586513e-002	0.0	6.211300e-001	3.479879e-002	0.0	6.363800e-001	3.370189e-002	0.0	6.515000e-001	3.257002e-002	0.0	6.664700e-001	3.140050e-002	0.0	6.812700e-001	3.019195e-002	0.0	6.958900e-001	2.894374e-002	0.0	7.103200e-001	2.765706e-002	0.0	7.245300e-001	2.633718e-002	0.0	7.385200e-001	2.498928e-002	0.0	7.522800e-001	2.362230e-002	0.0	7.657800e-001	2.225034e-002	0.0	7.790100e-001	2.088851e-002	0.0	7.919700e-001	1.955345e-002	0.0	8.046400e-001	1.826555e-002	0.0	8.170100e-001	1.704461e-002	0.0	8.290500e-001	1.591107e-002	0.0	8.407700e-001	1.487861e-002	0.0	8.521600e-001	1.395846e-002	0.0	8.631800e-001	1.315826e-002	0.0	8.738500e-001	1.247471e-002	0.0	8.841500e-001	1.190115e-002	0.0	8.940600e-001	1.142424e-002	0.0	9.035800e-001	1.102314e-002	0.0	9.127000e-001	1.067064e-002	0.0	9.214000e-001	1.033243e-002	0.0	9.296900e-001	9.965994e-003	0.0	9.375400e-001	9.526915e-003	0.0	9.449600e-001	8.972345e-003	0.0	9.519400e-001	8.274317e-003	0.0	9.584700e-001	7.429949e-003	0.0	9.645400e-001	6.467456e-003	0.0	9.701500e-001	5.440765e-003	0.0	9.752800e-001	4.421629e-003	0.0	9.799500e-001	3.470086e-003	0.0	9.841300e-001	2.637112e-003	0.0	9.878400e-001	1.938158e-003	0.0	9.910500e-001	1.375833e-003	0.0	9.937800e-001	9.306030e-004	0.0	9.960200e-001	5.854097e-004	0.0	9.977600e-001	3.266765e-004	0.0	9.990000e-001	1.453969e-004	0.0	9.997500e-001	3.633124e-005	0.0	1.000000e+000	0.000000e+000	0.0	1.984229e+001	2.506660e+000	0.0	1.937166e+001	4.973800e+000	0.0	1.859553e+001	7.362490e+000	0.0	1.752613e+001	9.635070e+000	0.0	1.618034e+001	1.175571e+001	0.0	1.457937e+001	1.369094e+001	0.0	1.274848e+001	1.541027e+001	0.0	1.071654e+001	1.688656e+001	0.0	8.515590e+000	1.809654e+001	0.0	6.180340e+000	1.902113e+001	0.0	3.747630e+000	1.964575e+001	0.0	1.255810e+000	1.996053e+001	0.0	-1.255810e+000	1.996053e+001	0.0	-3.747630e+000	1.964574e+001	0.0	-6.180340e+000	1.902113e+001	0.0	-8.515590e+000	1.809654e+001	0.0	-1.071654e+001	1.688656e+001	0.0	-1.274848e+001	1.541026e+001	0.0	-1.457937e+001	1.369094e+001	0.0	-1.618034e+001	1.175570e+001	0.0	-1.752613e+001	9.635070e+000	0.0	-1.859553e+001	7.362490e+000	0.0	-1.937166e+001	4.973800e+000	0.0	-1.984229e+001	2.506660e+000	0.0	-2.000000e+001	0.000000e+000	0.0	-1.984229e+001	-2.506670e+000	0.0	-1.937166e+001	-4.973800e+000	0.0	-1.859553e+001	-7.362490e+000	0.0	-1.752613e+001	-9.635080e+000	0.0	-1.618034e+001	-1.175571e+001	0.0	-1.457937e+001	-1.369094e+001	0.0	-1.274848e+001	-1.541027e+001	0.0	-1.071653e+001	-1.688656e+001	0.0	-8.515580e+000	-1.809654e+001	0.0	-6.180340e+000	-1.902113e+001	0.0	-3.747620e+000	-1.964575e+001	0.0	-1.255810e+000	-1.996053e+001	0.0	1.255810e+000	-1.996053e+001	0.0	3.747630e+000	-1.964574e+001	0.0	6.180340e+000	-1.902113e+001	0.0	8.515590e+000	-1.809654e+001	0.0	1.071654e+001	-1.688656e+001	0.0	1.274848e+001	-1.541026e+001	0.0	1.457937e+001	-1.369094e+001	0.0	1.618034e+001	-1.175570e+001	0.0	1.752614e+001	-9.635070e+000	0.0	1.859553e+001	-7.362490e+000	0.0	1.937166e+001	-4.973790e+000	0.0	1.984229e+001	-2.506660e+000	0.0	2.000000e+001	0.000000e+000	0.0	6.097148e-002	-4.404737e-002	0.0	6.605488e-001	-6.222282e-002	0.0	4.260491e-001	6.175689e-002	0.0	6.897143e-001	4.292605e-002	0.0	3.788775e-001	-7.648760e-002	0.0	9.994611e-001	-7.093231e-004	0.0	9.985471e-001	-1.292246e-003	0.0	7.741499e-001	-4.374539e-002	0.0	6.902499e-001	-5.807045e-002	0.0	-1.129540e-003	5.010695e-003	0.0	7.471593e-001	-4.878597e-002	0.0	5.835269e-001	5.173725e-002	0.0	9.927553e-001	-3.451633e-003	0.0	9.898323e-001	-4.220410e-003	0.0	5.990655e-001	5.060197e-002	0.0	7.191609e-001	-5.357416e-002	0.0	-1.505883e-003	4.401434e-004	0.0	9.864094e-001	-4.995104e-003	0.0	9.824978e-001	-5.749174e-003	0.0	-1.381029e-003	-7.162617e-003	0.0	6.454432e-001	-6.415708e-002	0.0	8.246358e-001	-3.338156e-002	0.0	8.000032e-001	-3.856821e-002	0.0	3.489472e-001	6.555459e-002	0.0	8.479276e-001	-2.840519e-002	0.0	2.474940e-001	6.667168e-002	0.0	8.698260e-001	-2.382155e-002	0.0	1.039187e-002	1.635518e-002	0.0	8.902370e-001	-1.979190e-002	0.0	7.726394e-002	-4.755720e-002	0.0	9.091038e-001	-1.637594e-002	0.0	-1.797983e-003	-3.578567e-003	0.0	9.419336e-001	-1.123717e-002	0.0	9.263588e-001	-1.354237e-002	0.0	1.799815e-002	-2.874856e-002	0.0	4.255609e-001	-7.739955e-002	0.0	8.590594e-001	-2.604972e-002	0.0	9.557883e-001	-9.402446e-003	0.0	9.780931e-001	-6.489960e-003	0.0	9.678670e-001	-7.893421e-003	0.0	1.583553e-001	-5.947755e-002	0.0	8.998694e-001	-1.800789e-002	0.0	7.607912e-001	-4.629138e-002	0.0	9.971207e-001	-2.009265e-003	0.0	5.992945e-001	-6.931028e-002	0.0	4.412918e-001	-7.742638e-002	0.0	5.363946e-001	-7.437509e-002	0.0	4.729285e-001	-7.703161e-002	0.0	5.046654e-001	-7.601720e-002	0.0	4.887834e-001	-7.660193e-002	0.0	1.251319e-001	-5.528868e-002	0.0	2.795999e-002	-3.371515e-002	0.0	3.943411e-001	-7.692365e-002	0.0	4.641549e-002	-4.022
[...]
POINT_DATA 5233

SCALARS Density float 1
LOOKUP_TABLE default
1.171848e+000	1.146840e+000	1.127906e+000	1.110596e+000	1.094543e+000	1.080769e+000	1.070844e+000	1.066668e+000	1.068695e+000	1.075607e+000	1.085021e+000	1.094385e+000	1.101779e+000	1.106429e+000	1.108515e+000	1.108697e+000	1.107683e+000	1.105965e+000	1.103655e+000	1.100597e+000	1.096461e+000	1.090965e+000	1.083896e+000	1.075270e+000	1.065162e+000	1.053837e+000	1.041608e+000	1.028836e+000	1.015890e+000	1.003134e+000	9.908945e-001	9.793531e-001	9.685723e-001	9.589099e-001	9.506308e-001	9.431133e-001	9.350845e-001	9.288921e-001	9.316445e-001	9.414119e-001	9.277727e-001	8.379707e-001	7.272672e-001	6.894427e-001	6.994352e-001	7.135014e-001	7.250911e-001	7.350412e-001	7.450515e-001	7.552515e-001	7.654538e-001	7.760077e-001	7.871701e-001	7.989048e-001	8.107678e-001	8.223683e-001	8.335046e-001	8.441667e-001	8.543851e-001	8.641389e-001	8.733863e-001	8.820862e-001	8.901795e-001	8.976544e-001	9.044744e-001	9.106199e-001	9.160843e-001	9.208678e-001	9.249740e-001	9.284015e-001	9.311559e-001	9.332350e-001	9.346656e-001	9.354647e-001	9.356772e-001	9.352985e-001	9.343747e-001	9.329871e-001	9.312300e-001	9.292230e-001	9.271899e-001	9.254088e-001	9.243016e-001	9.243633e-001	9.262663e-001	9.309077e-001	9.391719e-001	9.520410e-001	9.706047e-001	9.958102e-001	1.028856e+000	1.070397e+000	1.119711e+000	1.175025e+000	1.232768e+000	1.287274e+000	1.327792e+000	1.351275e+000	1.341736e+000	1.309867e+000	1.282207e+000	1.219276e+000	1.110729e+000	1.044743e+000	1.011433e+000	9.978955e-001	9.921070e-001	9.876394e-001	9.824091e-001	9.760858e-001	9.684892e-001	9.594642e-001	9.491260e-001	9.375167e-001	9.247358e-001	9.109160e-001	8.961391e-001	8.804930e-001	8.641692e-001	8.472933e-001	8.300353e-001	8.124704e-001	7.946354e-001	7.767071e-001	7.589967e-001	7.418806e-001	7.256062e-001	7.099731e-001	6.948101e-001	6.801214e-001	6.663067e-001	6.536991e-001	6.425351e-001	6.327698e-001	6.243707e-001	6.172277e-001	6.112523e-001	6.064441e-001	6.026456e-001	5.998574e-001	5.980460e-001	5.973438e-001	5.978438e-001	5.992736e-001	6.011978e-001	6.033848e-001	6.056917e-001	6.079807e-001	6.106231e-001	6.144223e-001	6.191069e-001	6.213206e-001	6.187086e-001	6.744353e-001	8.481644e-001	9.865138e-001	9.938928e-001	9.831481e-001	9.800066e-001	9.804557e-001	9.803043e-001	9.804316e-001	9.816808e-001	9.839553e-001	9.870583e-001	9.910082e-001	9.957002e-001	1.001030e+000	1.006754e+000	1.012664e+000	1.018445e+000	1.023789e+000	1.028395e+000	1.031957e+000	1.034241e+000	1.035032e+000	1.034153e+000	1.031459e+000	1.026812e+000	1.020066e+000	1.011189e+000	1.000419e+000	9.887084e-001	9.779355e-001	9.709903e-001	9.711883e-001	9.808555e-001	9.994379e-001	1.023207e+000	1.047244e+000	1.068575e+000	1.085935e+000	1.099072e+000	1.108957e+000	1.116833e+000	1.124799e+000	1.134145e+000	1.146786e+000	1.164387e+000	1.152791e+000	9.988626e-001	9.997025e-001	9.997994e-001	9.996876e-001	9.996187e-001	9.995296e-001	9.994229e-001	9.992892e-001	9.991429e-001	9.990459e-001	9.990000e-001	9.990720e-001	9.992323e-001	9.995211e-001	9.997600e-001	9.999515e-001	1.000059e+000	1.000125e+000	1.000166e+000	1.000184e+000	1.000194e+000	1.000198e+000	1.000202e+000	1.000208e+000	1.000213e+000	1.000222e+000	1.000238e+000	1.000258e+000	1.000288e+000	1.000331e+000	1.000379e+000	1.000458e+000	1.000533e+000	1.000658e+000	1.000772e+000	1.000907e+000	1.001044e+000	1.001090e+000	1.001096e+000	1.001007e+000	1.000911e+000	1.000774e+000	1.000647e+000	1.000521e+000	1.000411e+000	1.000272e+000	1.000157e+000	1.000190e+000	9.993855e-001	9.982975e-001	9.371921e-001	9.434349e-001	6.021312e-001	9.836922e-001	8.444044e-001	1.152329e+000	1.137189e+000	9.888528e-001	9.358494e-001	1.229949e+000	9.681043e-001	9.718696e-001	1.092774e+000	1.082435e+000	1.004736e+000	9.517079e-001	1.311072e+000	1.075826e+000	1.073940e+000	1.336660e+000	9.530827e-001	1.035860e+000	1.011948e+000	6.028679e-001	1.058156e+000	6.489929e-001	1.076614e+000	1.020731e+000	1.089864e+000	9.354904e-001	1.098171e+000	1.347508e+000	1.104325e+000	1.102887e+000	1.047378e+000	8.116815e-001	1.067984e+000	1.100168e+000	1.076432e+000	1.088860e+000	9.378476e-001	1.094567e+000	9.781051e-001	1.120489e+000	6.998421e-001	8.001810e-001	7.379700e-001	7.784018e-001	7.581789e-001	7.683002e-001	9.389755e-001	9.899238e-001	8.339718e-001	9.466278e-001	8.230488e-001	8.815344e-001	8.638939e-001	9.704664e-001	8.970183e-001	1.104103e+000	9.386984e-001	9.320001e-001	9.359954e-001	9.377192e-001	7.144395e-001	9.364668e-001	7.716257e-001	1.083923e+000	1.015343e+000	1.105809e+000	1.178491e+000	9.982800e-001	1.100900e+000	1.103140e+000	1.082008e+000	1.161155e+000	1.047360e+000	9.157472e-001	7.280196e-001	9.593291e-001	1.000175e+000	9.384874e-001	9.251062e-001	7.004160e-001	9.331971e-001	9.405697e-001	1.227719e+000	1.085924e+000	8.543686e-001	9.345346e-001	1.186191e+000	9.207398e-001	9.368311e-001	8.895647e-001	9.101274e-001	7.890013e-001	9.439307e-001	1.284207e+000	1.312623e+000	6.181607e-001	1.327806e+000	9.776416e-001	9.285059e-001	9.546588e-001	8.166327e-001	6.005609e-001	1.126918e+000	6.193686e-001	6.086712e-001	1.039799e+000	1.001189e+000	1.027046e+000	6.113853e-001	6.040906e-001	5.995198e-001	9.985603e-001	1.015552e+000	8.836043e-001	1.058910e+000	9.881545e-001	9.837910e-001	8.508191e-001	9.142521e-001	6.225470e-001	6.389742e-001	7.319726e-001	6.106020e-001	6.063014e-001	5.996094e-001	7.644494e-001	7.991310e-001	9.825328e-001	7.012794e-001	6.728866e-001	9.832509e-001	7.314706e-001	9.952681e-001	9.879761e-001	1.015323e+000	1.004869e+000	1.030701e+000	1.024624e+000	1.022133e+000	1.031891e+000	9.824783e-001	1.007496e+000	1.019579e+000	1.031986e+000	1.030272e+000	1.020249e+000	1.028181e+000	9.998633e-001	1.010116e+000	9.854385e-001	9.912795e-001	9.831067e-001	9.829983e-001	6.271515e-001	9.891263e-001	6.866611e-001	6.603390e-001	7.479338e-001	7.164831e-001	9.419767e-001	7.816315e-001	1.008751e+000	9.665336e-001	9.288623e-001	1.062233e+000	1.095279e+000	1.023942e+000	8.729688e-001	7.479378e-001	1.103249e+000	9.880988e-001	1.036737e+000	8.674170e-001	8.992448e-001	6.301602e-001	8.338841e-001	1.075532e+000	1.089157e+000	6.160452e-001	1.100137e+000	1.109287e+000	6.062726e-001	6.005850e-001	9.899847e-001	1.175921e+000	1.138307e+000	1.149584e+000	9.067406e-001	9.562941e-001	1.117861e+000	6.165236e-001	1.274415e+000	1.130293e+000	9.357115e-001	9.390732e-001	9.038796e-001	9.027315e-001	1.217581e+000	1.268031e+000	9.035123e-001	9.457843e-001	1.095297e+000	1.171777e+000	8.835258e-001	9.394188e-001	9.978858e-001	1.084647e+000	8.813574e-001	1.060994e+000	1.041445e+000	9.444790e-001	1.314287e+000	9.293472e-001	1.092351e+000	1.094747e+000	9.415803e-001	9.529348e-001	9.493509e-001	8.023666e-001	9.452539e-001	8.451227e-001	1.088110e+000	1.008638e+000	1.059282e+000	1.010343e+000	9.854705e-001	1.027161e+000	8.385354e-001	9.857603e-001	7.555052e-001	1.028507e+000	1.090919e+000	6.117390e-001	6.186199e-001	9.970067e-001	1.026459e+000	1.100704e+000	1.005772e+000	1.066121e+000	6.692899e-001	6.169045e-001	6.817644e-001	8.550863e-001	9.396437e-001	9.328427e-001	1.039721e+000	7.877631e-001	9.462323e-001	1.034864e+000	1.109582e+000	1.023060e+000	9.401086e-001	1.186802e+000	1.127826e+000	1.118310e+000	1.085583e+000	1.165922e+000	1.213665e+000	1.334499e+000	1.318825e+000	1.058146e+000	1.191123e+000	9.496034e-001	1.126098e+000	1.101460e+000	6.029213e-001	7.411659e-001	1.080580e+000	1.076789e+000	1.003216e+000	1.091660e+000	1.333110e+000	8.132057e-001	6.028207e-001	1.051613e+000	6.383054e-001	1.069436e+000	1.082987e+000	9.467984e-001	1.092145e+000	1.097614e+000	1.099373e+000	1.005263e+000	1.097718e+000	1.090685e+000	1.079979e+000	9.433471e-001	9.774887e-001	9.874355e-001	1.113065e+000	7.919631e-001	7.819999e-001	7.718283e-001	1.029225e+000	8.349143e-001	8.241877e-001	8.729573e-001	9.718986e-001	1.099141e+000	1.099787e+000	9.426287e-001	9.441273e-001	7.304988e-001	7.424326e-001	1.086149e+000	1.082179e+000	9.600813e-001	9.682223e-001	9.439663e-001	9.437523e-001	7.152542e-001	7.077059e-001	9.615315e-001	9.543172e-001	1.130510e+000	8.641306e-001	8.548491e-001	9.382111e-001	9.357841e-001	9.253161e-001	9.207189e-001	8.966598e-001	8.892631e-001	9.155568e-001	1.302974e+000	1.254281e+000	9.596099e-001	1.079508e+000	6.176608e-001	6.139771e-001	6.099712e-001	6.073412e-001	1.051016e+000	1.019093e+000	1.006133e+000	6.053248e-001	6.037462e-001	6.036016e-001	1.012582e+000	9.936685e-001	9.177398e-001	9.322820e-001	6.579172e-001	6.475191e-001	7.714545e-001	8.046519e-001	8.216863e-001	1.012630e+000	9.952729e-001	9.919506e-001	1.008057e+000	1.024546e+000	1.018386e+000	1.029250e+000	1.028757e+000	1.021141e+000	1.017088e+000	1.003468e+000	9.991824e-001	9.891960e-001	9.871435e-001	9.862271e-001	9.859007e-001	6.561060e-001	6.136862e-001	9.851215e-001	9.954349e-001	6.950506e-001	7.093727e-001	7.243502e-001	7.398834e-001	1.024093e+000	9.725416e-001	9.851872e-001	1.019673e+000	1.030724e+000	7.614324e-001	7.512218e-001	1.121665e+000	9.976660e-001	8.713208e-001	8.872062e-001	6.229391e-001	6.300894e-001	6.051952e-001	6.078456e-001	9.951435e-001	9.998666e-001	8.563091e-001	9.412185e-001	9.862306e-001	1.289955e+000	9.098148e-001	1.311428e+000	8.465596e-001	9.036401e-001	1.006290e+000	7.554578e-001	1.092196e+000	1.093007e+000	1.083341e+000	1.021188e+000	1.130578e+000	1.102164e+000	1.138583e+000	1.153184e+000	1.117658e+000	1.173753e+000	1.067604e+000	1.289379e+000	9.522349e-001	1.094059e+000	1.091814e+000	7.522250e-001	1.140009e+000	1.202262e+000	9.544623e-001	1.267839e+000	9.612979e-001	1.097669e+000	1.070079e+000	1.166430e+000	8.817990e-001	1.062836e+000	9.478480e-001	1.099491e+000	1.131264e+000	1.060099e+000	6.189885e-001	1.005116e+000	9.880125e-001	1.110071e+000	6.163321e-001	6.567161e-001	6.234971e-001	7.799801e-001	9.219688e-001	1.145959e+000	1.289199e+000	1.206238e+000	1.034537e+000	1.252354e+000	1.090559e+000	9.540792e-001	1.316360e+000	9.442623e-001	8.055632e-001	1.041196e+000	1.072528e+000	1.023878e+000	1.010423e+000	9.876686e-001	1.072446e+000	1.011313e+000	1.023319e+000	1.025496e+000	6.303375e-001	6.468573e-001	6.914935e-001	8.606288e-001	9.457903e-001	9.432881e-001	9.338028e-001	1.051941e+000	7.954688e-001	1.046936e+000	1.118258e+000	1.098310e+000	1.167781e+000	1.236608e+000	1.318174e+000	1.018442e+000	1.159672e+000	1.149470e+000	1.087697e+000	1.086676e+000	9.783254e-001	8.155952e-001	6.061678e-001	1.045798e+000	1.054708e+000	1.076330e+000	1.081704e+000	9.607544e-001	9.567757e-001	1.085999e+000	1.089559e+000	1.094659e+000	1.093012e+000	1.083920e+000	9.865942e-001	9.963669e-001	1.108421e+000	7.959228e-001	7.860702e-001	8.364930e-001	8.260240e-001	1.000109e+000	1.095189e+000	1.095368e+000	9.473556e-001	9.459382e-001	7.453527e-001	7.345284e-001	1.085103e+000	1.083577e+000	9.687783e-001	9.773841e-001	9.508622e-001	9.496547e-001	9.485539e-001	7.240343e-001	7.359400e-001	9.859023e-001	9.748538e-001	9.665976e-001	8.736336e-001	8.650023e-001	8.560068e-001	9.423291e-001	9.399269e-001	9.371066e-001	9.300528e-001	9.257905e-001	8.968366e-001	8.895496e-001	9.210313e-001	9.644883e-001	6.126628e-001	6.093665e-001	1.033550e+000	6.070329e-001	6.058006e-001	6.053894e-001	6.078511e-001	1.011664e+000	9.364927e-001	9.507173e-001	6.673179e-001	6.791070e-001	8.112353e-001	8.278211e-001	8.444950e-001	9.954308e-001	1.016132e+000	1.020171e+000	1.026596e+000	1.026680e+000	1.025763e+000	1.021287e+000	1.018068e+000	1.014394e+000	1.006427e+000	1.002465e+000	9.987968e-001	9.926444e-001	9.902555e-001	9.886202e-001	9.888244e-001	6.217965e-001	6.105902e-001	9.871036e-001	9.879680e-001	1.002505e+000	7.047563e-001	7.184663e-001	7.331865e-001	7.485105e-001	7.643682e-001	9.778862e-001	9.913995e-001	1.016362e+000	1.026514e+000	1.036292e+000	7.757086e-001	7.651905e-001	1.005150e+000	1.019241e+000	8.763632e-001	8.918915e-001	9.070837e-001	6.381495e-001	6.105394e-001	6.138438e-001	6.180502e-001	1.002888e+000	1.003991e+000	1.007288e+000	8.109434e-001	9.151307e-001	9.499688e-001	9.157349e-001	9.099392e-001	1.288551e+000	9.594354e-001	1.110178e+000	1.066818e+000	7.597814e-001	1.269935e+000	1.127153e+000	1.088823e+000	1.090285e+000	1.029471e+000	1.094674e+000	6.163399e-001	1.266316e+000	1.061001e+000	1.189578e+000	1.024475e+000	1.102660e+000	1.195529e+000	9.882414e-001	1.164567e+000	1.155684e+000	1.163375e+000	1.013515e+000	9.471787e-001	1.074837e+000	8.487289e-001	9.623319e-001	8.194973e-001	9.042817e-001	1.076971e+000	6.613024e-001	1.016980e+000	1.012233e+000	1.008348e+000	8.050638e-001	6.794440e-001	1.091856e+000	9.409748e-001	1.063827e+000	1.125750e+000	1.086234e+000	1.111779e+000	1.086305e+000	1.100790e+000	9.545585e-001	1.219159e+000	9.615882e-001	9.685930e-001	1.129728e+000	1.097419e+000	1.159780e+000	1.020987e+000	6.173072e-001	6.485472e-001	1.233501e+000	1.081603e+000	9.885545e-001	1.022787e+000	6.405061e-001	6.582219e-001	6.680553e-001	9.501134e-001	9.517025e-001	1.055917e+000	1.105336e+000	1.133599e+000	1.246302e+000	1.298511e+000	1.050632e+000	1.087723e+000	1.088022e+000	8.973171e-001	1.049082e+000	1.056832e+000	1.070175e+000	1.075334e+000	9.709277e-001	9.659994e-001	1.079895e+000	1.083591e+000	1.086550e+000	1.090479e+000	1.089269e+000	9.945742e-001	1.004102e+000	1.104238e+000	8.102606e-001	8.009404e-001	8.387122e-001	8.289212e-001	1.091216e+000	1.091162e+000	9.513946e-001	9.491683e-001	7.526992e-001	1.085522e+000	1.085959e+000	9.771658e-001	9.868405e-001	9.571056e-001	9.551267e-001	9.533795e-001	7.418078e-001	7.516702e-001	1.012655e+000	9.984017e-001	9.865652e-001	9.775206e-001	8.829082e-001	8.749911e-001	8.667428e-001	8.580067e-001	9.446710e-001	9.418772e-001	9.386010e-001	9.350608e-001	9.310200e-001	8.904547e-001	8.975632e-001	9.266152e-001	6.130832e-001	1.044823e+000	1.034036e+000	6.109837e-001	6.095702e-001	6.099854e-001	6.111507e-001	6.139751e-001	9.553216e-001	9.695851e-001	6.908678e-001	7.038171e-001	8.199881e-001	8.349962e-001	8.510628e-001	8.671091e-001	1.015518e+000	1.018360e+000	1.020884e+000	1.023980e+000	1.024341e+000	1.023983e+000	1.022342e+000	1.018470e+000	1.015060e+000	1.012083e+000	1.004896e+000	1.001422e+000	9.982135e-001	9.954973e-001	9.929648e-001	9.912106e-001	9.894394e-001	6.135505e-001	6.132687e-001	9.888488e-001	9.897483e-001	1.000927e+000	1.004322e+000	7.165103e-001	7.302321e-001	7.436819e-001	7.583258e-001	7.734126e-001	7.891677e-001	9.833742e-001	9.970307e-001	1.022571e+000	1.032427e+000	1.040865e+000	7.901870e-001	7.791835e-001	7.707984e-001	1.011679e+000	1.026872e+000	1.042818e+000	8.825131e-001	8.973477e-001	9.121847e-001	9.267205e-001	6.173946e-001	6.222236e-001	6.272654e-001	6.331011e-001	1.012799e+000	1.010336e+000	1.010774e+000	7.846572e-001	8.705910e-001	9.391518e-001	9.521681e-001	9.216622e-001	9.163242e-001	9.105012e-001	1.127851e+000	1.105599e+000	1.086035e+000	1.149871e+000	1.153760e+000	9.709531e-001	9.664238e-001	1.179034e+000	1.062803e+000	1.227344e+000	1.058053e+000	9.503855e-001	8.314480e-001	1.087572e+000	1.160161e+000	1.245029e+000	1.297753e+000	1.298207e+000	1.286764e+000	1.245729e+000	1.108486e+000	6.613504e-001	1.085956e+000	1.095649e+000	1.085986e+000	1.013964e+000	8.507328e-001	1.095728e+000	1.016348e+000	1.018239e+000	6.227182e-001	6.127676e-001	9.876252e-001	1.004550e+000	6.171578e-001	7.716865e-001	6.502102e-001	1.088434e+000	9.701811e-001	1.140286e+000	1.071878e+000	1.296607e+000	1.155777e+000	1.144305e+000	1.085760e+000	1.039581e+000	1.264686e+000	1.067571e+000	1.203932e+000	1.027900e+000	1.186114e+000	1.148913e+000	1.152339e+000	1.103332e+000	8.985233e-001	9.057909e-001	1.080361e+000	7.577867e-001	1.022005e+000	1.091389e+000	9.599870e-001	1.216261e+000	6.686688e-001	6.818158e-001	6.905183e-001	9.600602e-001	1.109319e+000	1.133739e+000	1.276118e+000	1.080532e+000	1.051661e+000	1.058059e+000	1.063434e+000	1.069704e+000	9.747321e-001	9.809534e-001	1.073588e+000	1.078353e+000	1.080341e+000	1.083752e+000	1.087037e+000	1.086515e+000	9.980631e-001	1.100706e+000	8.236900e-001	8.164564e-001	8.410121e-001	8.336581e-001	1.087362e+000	1.087329e+000	9.550937e-001	9.521799e-001	1.086658e+000	1.088413e+000	9.857191e-001	9.630587e-001	9.598298e-001	9.585015e-001	7.658812e-001	1.023537e+000	1.009296e+000	9.972867e-001	9.885333e-001	8.923783e-001	8.842983e-001	8.775165e-001	8.684923e-001	8.612385e-001	9.469325e-001	9.442198e-001	9.401009e-001	9.367906e-001	9.320780e-001	1.053435e+000	1.044225e+000	1.035531e+000	6.152337e-001	6.152194e-001	6.146630e-001	6.178244e-001	6.196854e-001	9.607598e-001	9.752574e-001	7.052669e-001	7.151899e-001	8.423161e-001	8.581324e-001	8.743646e-001	1.018262e+000	1.019574e+000	1.020967e+000	1.021990e+000	1.022126e+000	1.022309e+000	1.020945e+000	1.018795e+000	1.015355e+000	1.010726e+000	9.987054e-001	9.940974e-001	9.897663e-001	1.002512e+000	9.960512e-001	7.310893e-001	7.415340e-001	7.576837e-001	7.682300e-001	7.845862e-001	7.997547e-001	8.153250e-001	9.893782e-001	1.003169e+000	1.028097e+000	1.036717e+000	1.043519e+000	8.049142e-001	7.889921e-001	1.017622e+000	1.033632e+000	1.049828e+000	8.897766e-001	9.043263e-001	9.184016e-001	9.330718e-001	9.471575e-001	6.255652e-001	6.293992e-001	6.374897e-001	6.446660e-001	1.016257e+000	1.016243e+000	8.106138e-001	9.232997e-001	9.280165e-001	9.224404e-001	9.176406e-001	9.112885e-001	1.134009e+000	1.132485e+000	1.168969e+000	1.261614e+000	1.155516e+000	1.086088e+000	1.083002e+000	1.200734e+000	1.037209e+000	1.112069e+000	1.090383e+000	1.255425e+000	1.064331e+000	1.147201e+000	6.675828e-001	1.149088e+000	1.110702e+000	1.176420e+000	1.125296e+000	1.085113e+000	7.916941e-001	1.075557e+000	9.036951e-001	1.082523e+000	1.081135e+000	8.787792e-001	9.730008e-001	9.513443e-001	1.226335e+000	8.488338e-001	9.838822e-001	9.782902e-001	8.595324e-001	1.059811e+000	1.019294e+000	1.224801e+000	1.090810e+000	1.084634e+000	1.144326e+000	1.067725e+000	1.295924e+000	1.242617e+000	1.093792e+000	9.805821e-001	6.182316e-001	6.196110e-001	1.089983e+000	1.147039e+000	1.108621e+000	1.278489e+000	1.149201e+000	1.047981e+000	1.209679e+000	1.190024e+000	6.571203e-001	1.083704e+000	1.031261e+000	1.026513e+000	6.123849e-001	6.874843e-001	7.105925e-001	9.670568e-001	1.131975e+000	1.154286e+000	1.104844e+000	1.055326e+000	1.065120e+000	9.898631e-001	1.073331e+000	1.077881e+000	1.084353e+000	1.097986e+000	8.338053e-001	1.083836e+000	1.084086e+000	9.570145e-001	1.087765e+000	9.945680e-001	1.007382e+000	9.670191e-001	9.625873e-001	7.820712e-001	1.032923e+000	1.018223e+000	1.005994e+000	9.996637e-001	8.903145e-001	8.757941e-001	8.630466e-001	9.441597e-001	9.359670e-001	1.051930e+000	1.044346e+000	6.230759e-001	6.303176e-001	9.805425e-001	7.358934e-001	8.813563e-001	1.011510e+000	1.019928e+000	1.020547e+000	1.019961e+000	1.017797e+000	1.015156e+000	1.006526e+000	1.001020e+000	9.964838e-001	9.920637e-001	9.864887e-001	9.940885e-001	1.013255e+000	9.073296e-001	7.623244e-001	7.882550e-001	8.120517e-001	8.240643e-001	8.413024e-001	9.956745e-001	1.009518e+000	1.021627e+000	1.035025e+000	1.045889e+000	8.210481e-001	8.067649e-001	1.023419e+000	1.039143e+000	1.055606e+000	1.072352e+000	8.977127e-001	9.121092e-001	9.256561e-001	9.396050e-001	9.555178e-001	9.661550e-001	6.418960e-001	6.555995e-001	1.022077e+000	1.020617e+000	8.010014e-001	9.504352e-001	9.638845e-001	9.265282e-001	9.157836e-001	1.095771e+000	1.136627e+000	1.130614e+000	1.115084e+000	1.020784e+000	1.084948e+000	1.145059e+000	1.108322e+000	1.177529e+000	1.122765e+000	1.117967e+000	1.102186e+000	1.128956e+000	1.206806e+000	1.235443e+000	1.051010e+000	9.903349e-001	6.791919e-001	1.103784e+000	1.071443e+000	1.086101e+000	9.800319e-001	1.110539e+000	1.159770e+000	8.636667e-001	1.079689e+000	9.257118e-001	7.998405e-001	1.084659e+000	1.086409e+000	1.069391e+000	1.055623e+000	1.144162e+000	1.071390e+000	1.078056e+000	1.038918e+000	7.189033e-001	7.725850e-001	9.674448e-001	9.974227e-001	1.128078e+000	1.133393e+000	1.276771e+000	1.083343e+000	1.044611e+000	1.150873e+000	1.088685e+000	1.186913e+000	1.140992e+000	8.105010e-001	1.222702e+000	9.928359e-001	9.848489e-001	1.064483e+000	1.241663e+000	1.082392e+000	1.091500e+000	9.764633e-001	1.256787e+000	1.149590e+000	1.007156e+000	1.208849e+000	1.193986e+000	6.