# vtk DataFile Version 3.0
vtk output
ASCII
DATASET UNSTRUCTURED_GRID
POINTS 5233 float
9.997500e-001	-3.633279e-005	0.0	9.990000e-001	-1.454953e-004	0.0	9.977600e-001	-3.277608e-004	0.0	9.960200e-001	-5.913083e-004	0.0	9.937800e-001	-9.521562e-004	0.0	9.910500e-001	-1.436370e-003	0.0	9.878400e-001	-2.078868e-003	0.0	9.841300e-001	-2.921493e-003	0.0	9.799500e-001	-3.981679e-003	0.0	9.752800e-001	-5.260908e-003	0.0	9.701500e-001	-6.713308e-003	0.0	9.645400e-001	-8.278784e-003	0.0	9.584700e-001	-9.875734e-003	0.0	9.519400e-001	-1.143920e-002	0.0	9.449600e-001	-1.292787e-002	0.0	9.375400e-001	-1.432962e-002	0.0	9.296900e-001	-1.565275e-002	0.0	9.214000e-001	-1.691505e-002	0.0	9.127000e-001	-1.812318e-002	0.0	9.035800e-001	-1.927975e-002	0.0	8.940600e-001	-2.037452e-002	0.0	8.841500e-001	-2.139520e-002	0.0	8.738500e-001	-2.233263e-002	0.0	8.631800e-001	-2.318228e-002	0.0	8.521600e-001	-2.394846e-002	0.0	8.407700e-001	-2.464623e-002	0.0	8.290500e-001	-2.529322e-002	0.0	8.170100e-001	-2.591333e-002	0.0	8.046400e-001	-2.653321e-002	0.0	7.919700e-001	-2.717732e-002	0.0	7.790100e-001	-2.786936e-002	0.0	7.657800e-001	-2.862953e-002	0.0	7.522800e-001	-2.947549e-002	0.0	7.385200e-001	-3.042038e-002	0.0	7.245300e-001	-3.147162e-002	0.0	7.103200e-001	-3.263366e-002	0.0	6.958900e-001	-3.390797e-002	0.0	6.812700e-001	-3.528965e-002	0.0	6.664700e-001	-3.677211e-002	0.0	6.515000e-001	-3.834585e-002	0.0	6.363800e-001	-3.999776e-002	0.0	6.211300e-001	-4.171256e-002	0.0	6.057600e-001	-4.347437e-002	0.0	5.902800e-001	-4.526618e-002	0.0	5.747100e-001	-4.706906e-002	0.0	5.590600e-001	-4.886489e-002	0.0	5.433600e-001	-5.063335e-002	0.0	5.276100e-001	-5.235804e-002	0.0	5.118400e-001	-5.402004e-002	0.0	4.960500e-001	-5.560475e-002	0.0	4.802700e-001	-5.709583e-002	0.0	4.645100e-001	-5.848054e-002	0.0	4.487800e-001	-5.974765e-002	0.0	4.331100e-001	-6.088610e-002	0.0	4.175000e-001	-6.188889e-002	0.0	4.019700e-001	-6.274916e-002	0.0	3.865400e-001	-6.346194e-002	0.0	3.712300e-001	-6.402400e-002	0.0	3.560400e-001	-6.443425e-002	0.0	3.409900e-001	-6.469216e-002	0.0	3.261100e-001	-6.479861e-002	0.0	3.114000e-001	-6.475598e-002	0.0	2.968700e-001	-6.456725e-002	0.0	2.825500e-001	-6.423666e-002	0.0	2.684500e-001	-6.376907e-002	0.0	2.545700e-001	-6.316930e-002	0.0	2.409400e-001	-6.244394e-002	0.0	2.275700e-001	-6.159926e-002	0.0	2.144700e-001	-6.064173e-002	0.0	2.016600e-001	-5.957881e-002	0.0	1.891400e-001	-5.841644e-002	0.0	1.769300e-001	-5.716227e-002	0.0	1.650400e-001	-5.582305e-002	0.0	1.534900e-001	-5.440664e-002	0.0	1.422900e-001	-5.291965e-002	0.0	1.314400e-001	-5.136692e-002	0.0	1.209500e-001	-4.975406e-002	0.0	1.108500e-001	-4.808960e-002	0.0	1.011300e-001	-4.637519e-002	0.0	9.181000e-002	-4.461678e-002	0.0	8.290000e-002	-4.281811e-002	0.0	7.440000e-002	-4.097996e-002	0.0	6.633000e-002	-3.910658e-002	0.0	5.869000e-002	-3.719693e-002	0.0	5.149000e-002	-3.525122e-002	0.0	4.474000e-002	-3.326888e-002	0.0	3.844000e-002	-3.124526e-002	0.0	3.260000e-002	-2.917752e-002	0.0	2.723000e-002	-2.706230e-002	0.0	2.232000e-002	-2.488666e-002	0.0	1.790000e-002	-2.265451e-002	0.0	1.395000e-002	-2.034516e-002	0.0	1.049000e-002	-1.795798e-002	0.0	7.520000e-003	-1.548205e-002	0.0	5.040000e-003	-1.290569e-002	0.0	3.050000e-003	-1.021626e-002	0.0	1.560000e-003	-7.420971e-003	0.0	5.600000e-004	-4.495956e-003	0.0	6.000000e-005	-1.466778e-003	0.0	0.000000e+000	0.000000e+000	0.0	6.000000e-005	1.457853e-003	0.0	5.600000e-004	4.537255e-003	0.0	1.560000e-003	7.618645e-003	0.0	3.050000e-003	1.066714e-002	0.0	5.040000e-003	1.369476e-002	0.0	7.520000e-003	1.667678e-002	0.0	1.049000e-002	1.960922e-002	0.0	1.395000e-002	2.248693e-002	0.0	1.790000e-002	2.530427e-002	0.0	2.232000e-002	2.804376e-002	0.0	2.723000e-002	3.071377e-002	0.0	3.260000e-002	3.329403e-002	0.0	3.844000e-002	3.578666e-002	0.0	4.474000e-002	3.818399e-002	0.0	5.149000e-002	4.047978e-002	0.0	5.869000e-002	4.267181e-002	0.0	6.633000e-002	4.475514e-002	0.0	7.440000e-002	4.672594e-002	0.0	8.290000e-002	4.858343e-002	0.0	9.181000e-002	5.032318e-002	0.0	1.011300e-001	5.194581e-002	0.0	1.108500e-001	5.345047e-002	0.0	1.209500e-001	5.483578e-002	0.0	1.314400e-001	5.610506e-002	0.0	1.422900e-001	5.725702e-002	0.0	1.534900e-001	5.829373e-002	0.0	1.650400e-001	5.921832e-002	0.0	1.769300e-001	6.003315e-002	0.0	1.891400e-001	6.074029e-002	0.0	2.016600e-001	6.134279e-002	0.0	2.144700e-001	6.184340e-002	0.0	2.275700e-001	6.224573e-002	0.0	2.409400e-001	6.255256e-002	0.0	2.545700e-001	6.276694e-002	0.0	2.684500e-001	6.289169e-002	0.0	2.825500e-001	6.292932e-002	0.0	2.968700e-001	6.288229e-002	0.0	3.114000e-001	6.275253e-002	0.0	3.261100e-001	6.254185e-002	0.0	3.409900e-001	6.225155e-002	0.0	3.560400e-001	6.188212e-002	0.0	3.712300e-001	6.143428e-002	0.0	3.865400e-001	6.090821e-002	0.0	4.019700e-001	6.030291e-002	0.0	4.175000e-001	5.961759e-002	0.0	4.331100e-001	5.885116e-002	0.0	4.487800e-001	5.800233e-002	0.0	4.645100e-001	5.706847e-002	0.0	4.802700e-001	5.604850e-002	0.0	4.960500e-001	5.494032e-002	0.0	5.118400e-001	5.374189e-002	0.0	5.276100e-001	5.245325e-002	0.0	5.433600e-001	5.107274e-002	0.0	5.590600e-001	4.960219e-002	0.0	5.747100e-001	4.804194e-002	0.0	5.902800e-001	4.639676e-002	0.0	6.057600e-001	4.467124e-002	0.0	6.211300e-001	4.287304e-002	0.0	6.363800e-001	4.101089e-002	0.0	6.515000e-001	3.909575e-002	0.0	6.664700e-001	3.714217e-002	0.0	6.812700e-001	3.516711e-002	0.0	6.958900e-001	3.318837e-002	0.0	7.103200e-001	3.122555e-002	0.0	7.245300e-001	2.930236e-002	0.0	7.385200e-001	2.743920e-002	0.0	7.522800e-001	2.565787e-002	0.0	7.657800e-001	2.398155e-002	0.0	7.790100e-001	2.242831e-002	0.0	7.919700e-001	2.101116e-002	0.0	8.046400e-001	1.973961e-002	0.0	8.170100e-001	1.861409e-002	0.0	8.290500e-001	1.762677e-002	0.0	8.407700e-001	1.675479e-002	0.0	8.521600e-001	1.596466e-002	0.0	8.631800e-001	1.521265e-002	0.0	8.738500e-001	1.444131e-002	0.0	8.841500e-001	1.359150e-002	0.0	8.940600e-001	1.260853e-002	0.0	9.035800e-001	1.145144e-002	0.0	9.127000e-001	1.010860e-002	0.0	9.214000e-001	8.610232e-003	0.0	9.296900e-001	7.026560e-003	0.0	9.375400e-001	5.473825e-003	0.0	9.449600e-001	4.078776e-003	0.0	9.519400e-001	2.958248e-003	0.0	9.584700e-001	2.180557e-003	0.0	9.645400e-001	1.742370e-003	0.0	9.701500e-001	1.569527e-003	0.0	9.752800e-001	1.544786e-003	0.0	9.799500e-001	1.547679e-003	0.0	9.841300e-001	1.491720e-003	0.0	9.878400e-001	1.341273e-003	0.0	9.910500e-001	1.109165e-003	0.0	9.937800e-001	8.330664e-004	0.0	9.960200e-001	5.582144e-004	0.0	9.977600e-001	3.216157e-004	0.0	9.990000e-001	1.449341e-004	0.0	9.997500e-001	3.632389e-005	0.0	1.000000e+000	0.000000e+000	0.0	1.984229e+001	2.506660e+000	0.0	1.937166e+001	4.973800e+000	0.0	1.859553e+001	7.362490e+000	0.0	1.752613e+001	9.635070e+000	0.0	1.618034e+001	1.175571e+001	0.0	1.457937e+001	1.369094e+001	0.0	1.274848e+001	1.541027e+001	0.0	1.071654e+001	1.688656e+001	0.0	8.515590e+000	1.809654e+001	0.0	6.180340e+000	1.902113e+001	0.0	3.747630e+000	1.964575e+001	0.0	1.255810e+000	1.996053e+001	0.0	-1.255810e+000	1.996053e+001	0.0	-3.747630e+000	1.964574e+001	0.0	-6.180340e+000	1.902113e+001	0.0	-8.515590e+000	1.809654e+001	0.0	-1.071654e+001	1.688656e+001	0.0	-1.274848e+001	1.541026e+001	0.0	-1.457937e+001	1.369094e+001	0.0	-1.618034e+001	1.175570e+001	0.0	-1.752613e+001	9.635070e+000	0.0	-1.859553e+001	7.362490e+000	0.0	-1.937166e+001	4.973800e+000	0.0	-1.984229e+001	2.506660e+000	0.0	-2.000000e+001	0.000000e+000	0.0	-1.984229e+001	-2.506670e+000	0.0	-1.937166e+001	-4.973800e+000	0.0	-1.859553e+001	-7.362490e+000	0.0	-1.752613e+001	-9.635080e+000	0.0	-1.618034e+001	-1.175571e+001	0.0	-1.457937e+001	-1.369094e+001	0.0	-1.274848e+001	-1.541027e+001	0.0	-1.071653e+001	-1.688656e+001	0.0	-8.515580e+000	-1.809654e+001	0.0	-6.180340e+000	-1.902113e+001	0.0	-3.747620e+000	-1.964575e+001	0.0	-1.255810e+000	-1.996053e+001	0.0	1.255810e+000	-1.996053e+001	0.0	3.747630e+000	-1.964574e+001	0.0	6.180340e+000	-1.902113e+001	0.0	8.515590e+000	-1.809654e+001	0.0	1.071654e+001	-1.688656e+001	0.0	1.274848e+001	-1.541026e+001	0.0	1.457937e+001	-1.369094e+001	0.0	1.618034e+001	-1.175570e+001	0.0	1.752614e+001	-9.635070e+000	0.0	1.859553e+001	-7.362490e+000	0.0	1.937166e+001	-4.973790e+000	0.0	1.984229e+001	-2.506660e+000	0.0	2.000000e+001	0.000000e+000	0.0	6.075538e-002	-4.529552e-002	0.0	6.602784e-001	-5.159832e-002	0.0	4.260621e-001	7.348935e-002	0.0	6.900876e-001	4.761651e-002	0.0	3.793510e-001	-7.755613e-002	0.0	9.994659e-001	-7.264795e-004	0.0	9.985527e-001	-1.330065e-003	0.0	7.734872e-001	-4.066977e-002	0.0	6.898193e-001	-4.836883e-002	0.0	-1.653886e-003	7.023149e-003	0.0	7.465198e-001	-4.291723e-002	0.0	5.838688e-001	6.135282e-002	0.0	9.928169e-001	-3.749062e-003	0.0	9.899395e-001	-4.773384e-003	0.0	5.994305e-001	5.959287e-002	0.0	7.186022e-001	-4.546667e-002	0.0	-1.702129e-003	8.330768e-004	0.0	9.865799e-001	-5.963595e-003	0.0	9.827450e-001	-7.326531e-003	0.0	-1.592859e-003	-6.827329e-003	0.0	6.452588e-001	-5.331690e-002	0.0	8.241481e-001	-3.668246e-002	0.0	7.993909e-001	-3.864885e-002	0.0	3.488867e-001	7.587509e-002	0.0	8.476185e-001	-3.462173e-002	0.0	2.475101e-001	7.521007e-002	0.0	8.697297e-001	-3.230951e-002	0.0	9.666597e-003	2.415956e-002	0.0	8.903630e-001	-2.966779e-002	0.0	7.701577e-002	-4.983139e-002	0.0	9.094314e-001	-2.670439e-002	0.0	-2.087286e-003	-3.370900e-003	0.0	9.425080e-001	-1.998193e-002	0.0	9.268425e-001	-2.346871e-002	0.0	1.791246e-002	-2.786295e-002	0.0	4.260657e-001	-7.549175e-002	0.0	8.588538e-001	-3.350196e-002	0.0	9.563699e-001	-1.625157e-002	0.0	9.784266e-001	-8.887282e-003	0.0	9.683591e-001	-1.242498e-002	0.0	1.581539e-001	-6.572662e-002	0.0	9.001007e-001	-2.822351e-002	0.0	7.601317e-001	-4.175938e-002	0.0	9.971343e-001	-2.087228e-003	0.0	5.993667e-001	-5.873060e-002	0.0	4.417953e-001	-7.449927e-002	0.0	5.367445e-001	-6.593218e-002	0.0	4.734117e-001	-7.209923e-002	0.0	5.051006e-001	-6.921115e-002	0.0	4.892467e-001	-7.071054e-002	0.0	1.248732e-001	-6.024842e-002	0.0	2.784539e-002	-3.314084e-002	0.0	3.948309e-001	-7.702581e-002	0.0	4.624004e-002	-4.058
[...]
POINT_DATA 5233

SCALARS Density float 1
LOOKUP_TABLE default
1.174456e+000	1.157063e+000	1.148742e+000	1.143929e+000	1.140773e+000	1.137539e+000	1.131804e+000	1.121969e+000	1.106727e+000	1.085894e+000	1.060415e+000	1.032314e+000	1.004805e+000	9.817641e-001	9.652426e-001	9.547145e-001	9.481248e-001	9.433088e-001	9.390487e-001	9.352442e-001	9.326405e-001	9.321580e-001	9.344046e-001	9.393511e-001	9.465414e-001	9.551393e-001	9.643742e-001	9.735194e-001	9.820208e-001	9.895160e-001	9.957852e-001	1.000720e+000	1.004336e+000	1.006596e+000	1.007621e+000	1.007420e+000	1.006127e+000	1.003834e+000	1.000661e+000	9.967797e-001	9.925595e-001	9.883809e-001	9.833397e-001	9.774038e-001	9.769166e-001	9.847735e-001	9.704690e-001	8.325472e-001	6.810425e-001	6.442747e-001	6.578207e-001	6.676087e-001	6.728668e-001	6.778908e-001	6.841513e-001	6.916637e-001	6.997315e-001	7.085287e-001	7.178054e-001	7.274269e-001	7.373111e-001	7.473751e-001	7.575469e-001	7.677845e-001	7.780199e-001	7.882501e-001	7.984744e-001	8.086535e-001	8.186706e-001	8.284406e-001	8.379196e-001	8.471807e-001	8.563284e-001	8.654186e-001	8.743905e-001	8.831224e-001	8.915972e-001	8.999032e-001	9.080620e-001	9.160755e-001	9.240274e-001	9.319597e-001	9.399925e-001	9.482427e-001	9.569133e-001	9.663308e-001	9.768468e-001	9.889889e-001	1.003489e+000	1.021136e+000	1.043199e+000	1.071078e+000	1.105775e+000	1.148003e+000	1.196731e+000	1.248723e+000	1.295941e+000	1.337746e+000	1.352035e+000	1.349041e+000	1.348210e+000	1.327786e+000	1.280015e+000	1.231078e+000	1.177313e+000	1.124670e+000	1.075409e+000	1.030463e+000	9.898328e-001	9.535323e-001	9.211250e-001	8.920007e-001	8.658746e-001	8.422788e-001	8.209552e-001	8.017470e-001	7.842950e-001	7.682497e-001	7.534908e-001	7.399387e-001	7.276794e-001	7.168252e-001	7.072637e-001	6.985273e-001	6.902380e-001	6.824033e-001	6.754888e-001	6.695678e-001	6.643517e-001	6.594509e-001	6.548696e-001	6.507940e-001	6.474276e-001	6.447225e-001	6.425496e-001	6.407006e-001	6.390132e-001	6.373834e-001	6.356745e-001	6.338386e-001	6.318496e-001	6.297868e-001	6.276908e-001	6.254431e-001	6.228501e-001	6.198768e-001	6.165043e-001	6.128756e-001	6.088991e-001	6.057666e-001	6.034259e-001	6.009669e-001	5.955361e-001	5.913654e-001	6.792283e-001	8.950227e-001	9.969213e-001	9.931569e-001	9.861658e-001	9.902623e-001	9.957208e-001	1.000571e+000	1.006289e+000	1.012465e+000	1.018690e+000	1.024636e+000	1.030160e+000	1.034957e+000	1.038807e+000	1.041480e+000	1.042715e+000	1.042339e+000	1.040159e+000	1.036119e+000	1.030396e+000	1.023452e+000	1.016366e+000	1.010690e+000	1.008550e+000	1.012143e+000	1.022833e+000	1.040204e+000	1.061707e+000	1.083506e+000	1.102411e+000	1.115992e+000	1.122515e+000	1.121289e+000	1.112750e+000	1.098945e+000	1.083852e+000	1.072220e+000	1.068023e+000	1.072761e+000	1.084562e+000	1.100322e+000	1.117432e+000	1.135798e+000	1.155043e+000	1.149189e+000	9.988839e-001	9.997538e-001	9.998669e-001	9.997833e-001	9.997432e-001	9.996880e-001	9.996178e-001	9.995254e-001	9.994212e-001	9.993518e-001	9.993220e-001	9.993835e-001	9.995165e-001	9.997451e-001	9.999314e-001	1.000075e+000	1.000151e+000	1.000193e+000	1.000214e+000	1.000222e+000	1.000223e+000	1.000221e+000	1.000219e+000	1.000222e+000	1.000225e+000	1.000231e+000	1.000244e+000	1.000261e+000	1.000286e+000	1.000322e+000	1.000362e+000	1.000423e+000	1.000480e+000	1.000568e+000	1.000640e+000	1.000712e+000	1.000773e+000	1.000771e+000	1.000751e+000	1.000680e+000	1.000612e+000	1.000521e+000	1.000436e+000	1.000351e+000	1.000276e+000	1.000172e+000	1.000086e+000	1.000139e+000	9.993283e-001	9.982680e-001	9.558056e-001	9.980742e-001	6.259601e-001	1.005093e+000	7.126610e-001	1.157719e+000	1.150439e+000	9.974275e-001	1.003732e+000	1.309127e+000	1.004024e+000	7.914508e-001	1.133108e+000	1.127482e+000	1.000178e+000	1.005968e+000	1.346166e+000	1.119490e+000	1.107951e+000	1.320763e+000	9.943737e-001	9.713137e-001	9.862105e-001	6.373179e-001	9.554333e-001	6.523299e-001	9.433081e-001	1.087497e+000	9.396886e-001	9.377598e-001	9.446612e-001	1.344630e+000	9.701880e-001	9.541453e-001	1.060677e+000	6.886962e-001	9.485506e-001	1.002790e+000	1.092257e+000	1.049727e+000	8.682761e-001	9.413459e-001	1.001298e+000	1.142773e+000	9.815077e-001	6.821578e-001	9.435607e-001	6.698464e-001	6.516165e-001	6.554388e-001	8.950352e-001	1.018120e+000	7.040583e-001	9.762609e-001	6.959824e-001	7.509744e-001	7.312992e-001	1.001974e+000	7.711263e-001	9.607571e-001	8.773473e-001	8.407875e-001	9.291487e-001	9.121220e-001	9.826111e-001	8.591733e-001	9.868076e-001	9.402648e-001	1.037376e+000	1.137778e+000	1.160835e+000	1.005755e+000	9.489864e-001	9.839901e-001	1.072531e+000	1.271552e+000	9.632298e-001	8.014457e-001	9.956121e-001	1.005539e+000	9.923679e-001	9.036154e-001	8.214996e-001	9.766939e-001	1.001288e+000	9.655977e-001	1.203305e+000	1.088761e+000	7.217927e-001	8.500483e-001	1.185096e+000	8.115205e-001	9.206311e-001	7.610261e-001	7.913401e-001	6.776935e-001	1.005326e+000	1.339070e+000	1.288069e+000	6.025248e-001	1.347333e+000	9.375427e-001	8.352548e-001	8.813720e-001	7.264992e-001	6.286011e-001	1.111476e+000	6.083351e-001	6.160895e-001	1.100049e+000	1.110868e+000	1.017100e+000	6.125937e-001	6.229777e-001	6.331163e-001	1.054869e+000	1.026275e+000	7.802780e-001	1.090475e+000	1.108745e+000	1.088424e+000	7.506060e-001	8.153230e-001	6.449684e-001	6.494339e-001	6.823989e-001	6.412161e-001	6.196930e-001	6.309590e-001	6.978765e-001	7.163087e-001	9.893909e-001	6.703122e-001	6.601225e-001	9.961502e-001	6.047716e-001	1.026811e+000	1.016154e+000	1.039957e+000	1.035293e+000	1.033208e+000	1.039430e+000	1.019106e+000	1.023327e+000	1.101036e+000	1.038666e+000	1.107589e+000	1.028407e+000	1.019048e+000	1.040420e+000	1.036982e+000	1.031415e+000	1.038212e+000	1.010493e+000	1.021609e+000	9.909726e-001	1.000305e+000	5.945087e-001	1.001164e+000	6.650021e-001	6.559004e-001	6.896719e-001	6.760782e-001	8.571653e-001	7.068755e-001	1.044922e+000	9.081011e-001	8.312739e-001	1.179983e+000	1.025549e+000	9.791103e-001	7.410540e-001	7.251301e-001	1.227669e+000	9.699793e-001	1.132789e+000	7.647971e-001	7.970627e-001	6.470284e-001	7.378432e-001	1.081972e+000	1.077531e+000	6.430717e-001	1.079053e+000	1.086248e+000	6.393406e-001	6.352270e-001	1.072357e+000	1.167587e+000	1.126996e+000	1.141488e+000	9.905991e-001	9.882221e-001	1.097679e+000	6.095578e-001	1.247419e+000	1.122277e+000	9.465910e-001	8.862961e-001	7.812460e-001	8.110686e-001	1.287847e+000	1.319487e+000	7.853905e-001	1.002919e+000	9.552108e-001	1.161157e+000	6.753891e-001	1.001084e+000	9.942080e-001	1.116478e+000	7.556365e-001	9.572627e-001	9.701426e-001	9.344495e-001	1.300394e+000	8.348114e-001	1.097293e+000	1.021467e+000	8.808845e-001	1.003911e+000	9.953299e-001	6.885390e-001	9.436324e-001	7.181746e-001	9.486039e-001	9.892821e-001	1.130982e+000	1.015523e+000	1.000261e+000	1.034823e+000	7.501714e-001	1.004186e+000	6.989765e-001	1.025796e+000	1.084257e+000	6.435781e-001	6.156064e-001	1.096194e+000	1.024533e+000	1.087782e+000	1.100607e+000	1.088081e+000	6.627091e-001	6.457995e-001	6.671391e-001	7.632712e-001	9.985458e-001	8.443589e-001	1.090387e+000	7.167764e-001	8.720736e-001	1.098329e+000	1.095222e+000	1.025837e+000	8.718051e-001	1.179113e+000	1.116997e+000	1.105198e+000	1.172505e+000	1.253787e+000	1.197372e+000	1.340116e+000	1.341162e+000	1.070922e+000	1.186862e+000	9.630177e-001	1.141316e+000	1.129702e+000	6.322324e-001	9.847742e-001	1.106910e+000	9.490202e-001	9.474324e-001	1.123854e+000	1.327073e+000	6.944290e-001	6.347653e-001	9.634167e-001	6.527832e-001	9.523080e-001	9.478017e-001	9.530951e-001	9.512173e-001	9.604094e-001	9.876769e-001	1.029107e+000	1.003083e+000	1.041388e+000	1.094384e+000	8.989409e-001	1.001107e+000	9.982022e-001	1.135257e+000	6.819087e-001	6.689215e-001	6.528358e-001	1.048484e+000	7.098004e-001	7.020469e-001	7.458933e-001	9.979587e-001	9.670308e-001	9.758084e-001	8.899642e-001	9.254517e-001	9.873319e-001	9.855496e-001	1.061007e+000	1.078995e+000	1.003956e+000	1.003084e+000	9.166158e-001	9.077942e-001	9.774729e-001	9.805460e-001	9.852070e-001	9.736670e-001	1.127325e+000	7.363433e-001	7.270651e-001	8.627877e-001	8.536820e-001	8.250649e-001	8.152126e-001	7.754380e-001	7.654812e-001	8.052839e-001	1.337632e+000	1.235048e+000	8.959724e-001	1.084436e+000	6.118874e-001	6.173879e-001	6.204637e-001	6.234390e-001	1.093375e+000	1.101152e+000	1.050751e+000	6.265586e-001	6.294764e-001	6.371484e-001	1.039173e+000	1.088039e+000	8.297268e-001	8.500387e-001	6.589219e-001	6.556010e-001	7.073732e-001	7.273118e-001	7.383430e-001	1.037023e+000	1.023745e+000	1.018890e+000	1.034936e+000	1.036961e+000	1.030631e+000	1.028581e+000	1.031807e+000	1.038123e+000	1.038190e+000	1.031891e+000	1.028044e+000	1.013969e+000	1.008812e+000	9.972678e-001	9.923605e-001	6.011663e-001	5.977236e-001	9.933463e-001	1.006861e+000	6.721285e-001	6.779396e-001	6.843649e-001	6.914572e-001	1.051869e+000	9.221447e-001	9.508974e-001	9.834789e-001	9.769825e-001	6.801461e-001	8.532984e-001	1.214451e+000	9.820211e-001	7.778146e-001	7.937707e-001	6.479670e-001	6.502600e-001	6.393205e-001	6.414300e-001	1.076881e+000	1.063912e+000	9.886541e-001	9.919137e-001	1.012400e+000	1.270716e+000	7.953583e-001	1.306444e+000	7.247514e-001	7.903393e-001	9.911714e-001	9.483780e-001	9.667113e-001	1.089341e+000	1.087068e+000	1.094093e+000	1.203029e+000	1.094665e+000	1.129128e+000	1.146497e+000	1.132827e+000	1.168988e+000	1.079320e+000	1.319254e+000	9.401782e-001	9.731114e-001	1.114435e+000	6.212329e-001	1.149648e+000	1.192361e+000	1.001266e+000	1.255176e+000	1.001820e+000	1.103637e+000	9.571997e-001	1.160823e+000	7.610940e-001	9.603964e-001	1.000092e+000	1.121431e+000	1.131136e+000	1.089363e+000	6.184860e-001	1.086506e+000	1.000458e+000	1.101789e+000	6.240968e-001	6.623309e-001	6.507713e-001	7.185147e-001	8.449342e-001	1.139171e+000	1.279197e+000	1.265963e+000	1.058351e+000	1.297950e+000	1.036835e+000	9.497574e-001	1.335243e+000	8.850377e-001	6.934580e-001	1.057743e+000	1.129687e+000	1.035333e+000	1.034250e+000	1.003946e+000	1.087277e+000	1.091667e+000	1.030939e+000	1.029871e+000	6.533102e-001	6.589426e-001	6.750374e-001	7.773746e-001	9.954763e-001	9.979618e-001	8.485816e-001	1.093589e+000	7.278462e-001	1.092048e+000	1.109712e+000	1.166519e+000	1.237749e+000	1.224324e+000	1.321978e+000	1.038462e+000	1.160188e+000	1.153215e+000	1.053698e+000	1.106349e+000	8.368169e-001	7.012013e-001	6.391065e-001	9.701405e-001	9.648194e-001	9.557420e-001	9.559982e-001	9.701880e-001	9.597320e-001	9.580891e-001	9.617148e-001	1.004853e+000	1.020164e+000	1.096382e+000	9.981362e-001	9.949435e-001	1.126783e+000	6.839850e-001	6.662463e-001	7.167086e-001	7.083611e-001	1.021695e+000	9.812687e-001	9.917697e-001	9.034206e-001	8.942090e-001	9.893922e-001	9.791370e-001	1.069720e+000	1.084023e+000	1.001441e+000	1.000123e+000	9.308305e-001	9.215376e-001	9.124625e-001	9.781570e-001	9.833079e-001	1.007047e+000	9.936934e-001	9.814172e-001	7.515898e-001	7.422232e-001	7.331676e-001	8.761094e-001	8.671266e-001	8.579517e-001	8.390551e-001	8.294206e-001	7.805027e-001	7.707751e-001	8.196842e-001	9.111020e-001	6.260005e-001	6.285301e-001	1.093981e+000	6.311148e-001	6.337950e-001	6.364206e-001	6.416559e-001	1.048974e+000	8.653958e-001	8.875253e-001	6.660299e-001	6.703731e-001	7.385382e-001	7.510301e-001	7.640180e-001	1.021136e+000	1.040546e+000	1.034433e+000	1.030412e+000	1.032032e+000	1.033772e+000	1.036348e+000	1.036410e+000	1.035783e+000	1.031761e+000	1.028930e+000	1.025002e+000	1.016452e+000	1.012113e+000	1.007426e+000	9.972907e-001	5.951615e-001	6.144755e-001	9.922790e-001	9.997279e-001	1.002316e+000	6.803958e-001	6.862844e-001	6.933386e-001	7.011574e-001	7.097698e-001	9.362702e-001	9.638477e-001	9.865637e-001	9.812997e-001	9.757515e-001	6.668978e-001	7.638116e-001	9.937754e-001	1.025100e+000	7.920566e-001	8.083481e-001	8.259707e-001	6.560236e-001	6.441397e-001	6.463491e-001	6.484783e-001	1.078852e+000	1.069342e+000	1.058995e+000	9.865038e-001	9.895029e-001	9.923549e-001	8.099347e-001	8.001308e-001	1.285620e+000	9.460128e-001	1.104934e+000	1.087904e+000	9.776854e-001	1.299436e+000	1.137980e+000	9.794244e-001	9.871724e-001	1.045993e+000	1.093378e+000	6.326698e-001	1.260421e+000	1.094692e+000	1.184786e+000	1.087251e+000	1.098496e+000	1.246725e+000	9.980590e-001	1.221283e+000	1.150243e+000	1.162266e+000	9.886697e-001	8.903292e-001	1.085429e+000	7.332570e-001	9.559988e-001	7.076776e-001	7.966274e-001	1.088147e+000	6.203078e-001	1.083782e+000	1.078574e+000	1.031332e+000	7.416361e-001	6.752079e-001	1.105703e+000	8.802792e-001	9.649079e-001	1.118424e+000	1.089852e+000	1.124855e+000	1.062711e+000	1.107408e+000	9.986609e-001	1.212370e+000	9.989926e-001	9.996600e-001	1.132018e+000	1.112724e+000	1.158105e+000	1.035378e+000	6.288027e-001	6.632336e-001	1.275957e+000	1.126803e+000	1.001880e+000	1.035100e+000	6.602549e-001	6.669441e-001	6.706262e-001	9.950628e-001	9.966959e-001	1.088506e+000	1.158674e+000	1.190842e+000	1.238889e+000	1.302510e+000	1.064745e+000	1.048788e+000	1.097238e+000	7.352253e-001	9.712311e-001	9.675660e-001	9.634994e-001	9.637114e-001	9.770325e-001	9.662466e-001	9.654424e-001	9.686756e-001	9.734115e-001	1.020475e+000	1.034509e+000	9.953015e-001	9.920834e-001	1.119107e+000	6.988897e-001	6.807157e-001	7.246439e-001	7.161294e-001	9.964139e-001	1.007501e+000	9.086015e-001	8.990000e-001	9.873879e-001	1.075591e+000	1.087229e+000	9.983669e-001	9.971833e-001	9.363500e-001	9.269908e-001	9.179378e-001	9.816422e-001	9.813797e-001	1.030045e+000	1.015105e+000	1.001100e+000	9.884660e-001	7.682297e-001	7.588555e-001	7.500021e-001	7.413455e-001	8.815145e-001	8.724994e-001	8.632487e-001	8.539116e-001	8.445176e-001	7.775208e-001	7.871332e-001	8.350104e-001	6.356865e-001	1.089126e+000	1.088903e+000	6.373451e-001	6.394746e-001	6.421108e-001	6.444604e-001	6.472182e-001	9.023300e-001	9.259236e-001	6.797489e-001	6.853456e-001	7.521871e-001	7.643380e-001	7.783942e-001	7.929692e-001	1.048803e+000	1.042560e+000	1.037987e+000	1.033847e+000	1.033610e+000	1.034173e+000	1.034412e+000	1.035463e+000	1.034158e+000	1.033757e+000	1.029219e+000	1.025762e+000	1.022630e+000	1.018546e+000	1.014759e+000	1.010446e+000	1.006201e+000	6.200762e-001	6.025545e-001	9.979648e-001	1.000657e+000	1.006838e+000	9.594390e-001	6.907594e-001	6.973085e-001	7.038881e-001	7.121750e-001	7.209860e-001	7.310108e-001	9.500733e-001	9.754617e-001	9.845448e-001	9.798828e-001	9.754783e-001	6.791718e-001	7.157570e-001	8.618196e-001	1.003712e+000	1.033196e+000	1.062936e+000	8.076998e-001	8.235810e-001	8.413875e-001	8.602771e-001	6.497562e-001	6.525209e-001	6.549121e-001	6.572960e-001	1.056284e+000	1.071788e+000	1.064228e+000	9.825231e-001	9.850638e-001	9.890060e-001	9.918299e-001	8.254875e-001	8.158497e-001	8.063125e-001	1.131723e+000	1.102040e+000	1.057976e+000	1.144027e+000	1.154821e+000	9.969211e-001	9.522185e-001	1.177912e+000	1.086670e+000	1.224326e+000	1.070005e+000	8.971678e-001	7.684315e-001	1.124093e+000	1.206727e+000	1.275070e+000	1.315881e+000	1.315697e+000	1.307580e+000	1.243626e+000	1.120261e+000	6.716447e-001	1.069350e+000	1.105133e+000	1.001475e+000	9.885678e-001	7.416188e-001	1.095607e+000	1.054798e+000	1.072733e+000	6.204784e-001	6.316031e-001	1.000592e+000	1.027556e+000	6.423545e-001	9.472853e-001	6.666540e-001	1.091906e+000	9.624104e-001	1.133648e+000	1.087532e+000	1.309532e+000	1.157663e+000	1.149736e+000	9.916375e-001	1.052984e+000	1.264683e+000	1.095292e+000	1.201360e+000	1.081162e+000	1.229655e+000	1.145921e+000	1.151013e+000	1.110077e+000	7.933622e-001	8.044311e-001	1.089157e+000	6.768070e-001	1.077569e+000	1.097745e+000	9.960062e-001	1.254345e+000	6.742602e-001	6.803304e-001	6.835805e-001	9.924783e-001	1.152035e+000	1.179910e+000	1.280182e+000	1.090033e+000	9.735895e-001	9.710235e-001	9.711384e-001	9.701619e-001	9.728636e-001	9.842327e-001	9.730367e-001	9.746291e-001	9.803372e-001	9.862361e-001	1.033830e+000	1.045998e+000	9.935662e-001	1.111437e+000	7.130841e-001	7.004727e-001	7.313503e-001	7.239231e-001	1.011413e+000	1.021941e+000	9.137281e-001	9.038981e-001	1.079946e+000	1.089443e+000	9.956774e-001	9.420294e-001	9.320744e-001	9.249899e-001	9.918679e-001	1.037295e+000	1.022297e+000	1.008206e+000	9.960602e-001	7.858759e-001	7.750379e-001	7.678936e-001	7.574064e-001	7.511267e-001	8.869010e-001	8.792883e-001	8.683803e-001	8.606826e-001	8.498134e-001	1.086055e+000	1.085244e+000	1.083724e+000	6.442162e-001	6.468948e-001	6.475563e-001	6.509207e-001	6.524253e-001	9.170829e-001	9.401891e-001	6.908690e-001	6.948773e-001	7.767724e-001	7.929461e-001	8.089797e-001	1.049107e+000	1.043853e+000	1.040536e+000	1.037523e+000	1.036395e+000	1.035381e+000	1.035123e+000	1.034769e+000	1.033782e+000	1.031785e+000	1.021739e+000	1.014958e+000	1.005681e+000	1.019495e+000	9.471545e-001	7.034307e-001	7.080003e-001	7.178322e-001	7.232007e-001	7.348697e-001	7.448294e-001	7.562032e-001	9.637083e-001	9.872308e-001	9.833543e-001	9.794470e-001	9.766462e-001	6.946309e-001	7.536424e-001	1.012511e+000	1.040393e+000	1.067448e+000	8.246572e-001	8.404428e-001	8.575298e-001	8.772070e-001	8.968968e-001	6.560142e-001	6.577632e-001	6.616972e-001	6.647068e-001	1.067378e+000	1.060575e+000	9.814480e-001	9.853580e-001	8.420197e-001	8.309732e-001	8.231993e-001	8.121698e-001	1.143421e+000	1.124593e+000	1.170623e+000	1.284811e+000	1.155768e+000	1.074094e+000	1.090018e+000	1.234959e+000	1.078846e+000	1.122162e+000	1.090999e+000	1.260829e+000	1.074338e+000	1.150331e+000	6.766246e-001	1.144675e+000	1.145412e+000	1.213568e+000	1.130223e+000	1.064726e+000	8.705251e-001	1.087593e+000	8.059627e-001	1.014609e+000	1.001118e+000	9.793804e-001	9.581528e-001	8.981709e-001	1.227425e+000	7.430901e-001	9.804122e-001	9.695400e-001	8.003871e-001	1.084142e+000	1.055322e+000	1.254033e+000	1.120575e+000	1.054856e+000	1.138330e+000	1.085608e+000	1.312612e+000	1.245158e+000	1.098234e+000	9.944663e-001	6.454807e-001	6.510436e-001	1.093187e+000	1.145650e+000	1.105219e+000	1.288111e+000	1.152400e+000	1.058724e+000	1.210145e+000	1.190740e+000	6.437278e-001	1.092278e+000	1.076312e+000	1.072055e+000	6.271212e-001	6.857679e-001	6.970260e-001	9.945098e-001	1.169629e+000	1.192780e+000	1.111574e+000	9.767203e-001	9.779549e-001	9.910288e-001	9.833399e-001	9.923498e-001	1.044554e+000	1.104713e+000	7.244951e-001	1.024588e+000	1.034202e+000	9.145381e-001	1.082830e+000	9.932226e-001	9.905616e-001	9.436270e-001	9.302406e-001	9.804896e-001	1.043605e+000	1.027955e+000	1.014010e+000	1.004864e+000	7.881176e-001	7.712404e-001	7.590096e-001	8.798763e-001	8.612991e-001	1.082744e+000	1.081110e+000	6.559762e-001	6.598971e-001	9.528208e-001	7.103505e-001	8.243028e-001	1.031804e+000	1.046599e+000	1.040295e+000	1.036954e+000	1.035158e+000	1.033869e+000	1.028482e+000	1.023524e+000	1.017908e+000	1.009775e+000	9.995710e-001	1.007711e+000	1.011691e+000	8.419042e-001	7.257510e-001	7.428187e-001	7.603783e-001	7.685166e-001	7.839072e-001	9.765120e-001	9.986037e-001	9.864866e-001	9.819692e-001	9.787714e-001	7.081873e-001	7.335258e-001	1.020860e+000	1.045908e+000	1.071211e+000	1.095487e+000	8.421406e-001	8.580236e-001	8.743679e-001	8.930994e-001	9.154587e-001	9.303247e-001	6.653912e-001	6.715256e-001	1.068820e+000	1.063562e+000	9.854426e-001	9.863247e-001	9.924462e-001	8.427456e-001	8.242716e-001	1.096652e+000	1.143238e+000	1.139314e+000	1.110522e+000	1.027379e+000	1.090567e+000	1.141970e+000	1.117465e+000	1.180718e+000	1.128360e+000	1.127889e+000	1.109900e+000	1.160249e+000	1.234288e+000	1.242263e+000	1.079203e+000	9.925460e-001	6.844330e-001	1.101976e+000	9.957485e-001	1.093799e+000	9.553939e-001	1.139328e+000	1.163459e+000	7.643299e-001	1.026469e+000	9.805041e-001	9.405325e-001	1.069744e+000	1.077616e+000	1.077716e+000	1.064028e+000	1.139007e+000	1.085144e+000	1.087449e+000	1.074854e+000	7.051953e-001	7.477775e-001	9.917884e-001	9.970776e-001	1.121593e+000	1.127247e+000	1.292878e+000	1.061406e+000	1.077041e+000	1.150800e+000	1.085041e+000	1.217282e+000	1.145561e+000	8.153001e-001	1.227547e+000	9.887937e-001	9.754602e-001	1.083119e+000	1.265011e+000	1.052820e+000	1.091899e+000	9.928421e-001	1.266893e+000	1.151693e+000	1.010315e+000	1.212546e+000	1.197167e+000	6.