# vtk DataFile Version 3.0
vtk output
ASCII
DATASET UNSTRUCTURED_GRID
POINTS 5233 float
9.997500e-001	-3.632370e-005	0.0	9.990000e-001	-1.449216e-004	0.0	9.977600e-001	-3.214723e-004	0.0	9.960200e-001	-5.573885e-004	0.0	9.937800e-001	-8.297965e-004	0.0	9.910500e-001	-1.098983e-003	0.0	9.878400e-001	-1.314487e-003	0.0	9.841300e-001	-1.429389e-003	0.0	9.799500e-001	-1.417279e-003	0.0	9.752800e-001	-1.295088e-003	0.0	9.701500e-001	-1.129556e-003	0.0	9.645400e-001	-1.022224e-003	0.0	9.584700e-001	-1.081202e-003	0.0	9.519400e-001	-1.384346e-003	0.0	9.449600e-001	-1.955787e-003	0.0	9.375400e-001	-2.763327e-003	0.0	9.296900e-001	-3.736241e-003	0.0	9.214000e-001	-4.794955e-003	0.0	9.127000e-001	-5.867314e-003	0.0	9.035800e-001	-6.912401e-003	0.0	8.940600e-001	-7.914144e-003	0.0	8.841500e-001	-8.880230e-003	0.0	8.738500e-001	-9.832190e-003	0.0	8.631800e-001	-1.079361e-002	0.0	8.521600e-001	-1.178574e-002	0.0	8.407700e-001	-1.282767e-002	0.0	8.290500e-001	-1.392670e-002	0.0	8.170100e-001	-1.508729e-002	0.0	8.046400e-001	-1.631218e-002	0.0	7.919700e-001	-1.759827e-002	0.0	7.790100e-001	-1.894387e-002	0.0	7.657800e-001	-2.034661e-002	0.0	7.522800e-001	-2.180689e-002	0.0	7.385200e-001	-2.332454e-002	0.0	7.245300e-001	-2.489700e-002	0.0	7.103200e-001	-2.652302e-002	0.0	6.958900e-001	-2.820100e-002	0.0	6.812700e-001	-2.992374e-002	0.0	6.664700e-001	-3.168397e-002	0.0	6.515000e-001	-3.347197e-002	0.0	6.363800e-001	-3.527466e-002	0.0	6.211300e-001	-3.707725e-002	0.0	6.057600e-001	-3.886498e-002	0.0	5.902800e-001	-4.062263e-002	0.0	5.747100e-001	-4.233403e-002	0.0	5.590600e-001	-4.398494e-002	0.0	5.433600e-001	-4.556037e-002	0.0	5.276100e-001	-4.705015e-002	0.0	5.118400e-001	-4.844315e-002	0.0	4.960500e-001	-4.973303e-002	0.0	4.802700e-001	-5.091296e-002	0.0	4.645100e-001	-5.197979e-002	0.0	4.487800e-001	-5.293197e-002	0.0	4.331100e-001	-5.376835e-002	0.0	4.175000e-001	-5.449076e-002	0.0	4.019700e-001	-5.510087e-002	0.0	3.865400e-001	-5.560119e-002	0.0	3.712300e-001	-5.599481e-002	0.0	3.560400e-001	-5.628548e-002	0.0	3.409900e-001	-5.647640e-002	0.0	3.261100e-001	-5.657070e-002	0.0	3.114000e-001	-5.657153e-002	0.0	2.968700e-001	-5.648138e-002	0.0	2.825500e-001	-5.630254e-002	0.0	2.684500e-001	-5.603678e-002	0.0	2.545700e-001	-5.568507e-002	0.0	2.409400e-001	-5.524864e-002	0.0	2.275700e-001	-5.472798e-002	0.0	2.144700e-001	-5.412320e-002	0.0	2.016600e-001	-5.343468e-002	0.0	1.891400e-001	-5.266160e-002	0.0	1.769300e-001	-5.180418e-002	0.0	1.650400e-001	-5.086212e-002	0.0	1.534900e-001	-4.983614e-002	0.0	1.422900e-001	-4.872646e-002	0.0	1.314400e-001	-4.753240e-002	0.0	1.209500e-001	-4.625439e-002	0.0	1.108500e-001	-4.489599e-002	0.0	1.011300e-001	-4.345602e-002	0.0	9.181000e-002	-4.193771e-002	0.0	8.290000e-002	-4.034344e-002	0.0	7.440000e-002	-3.867404e-002	0.0	6.633000e-002	-3.693453e-002	0.0	5.869000e-002	-3.512626e-002	0.0	5.149000e-002	-3.325285e-002	0.0	4.474000e-002	-3.131837e-002	0.0	3.844000e-002	-2.932405e-002	0.0	3.260000e-002	-2.727396e-002	0.0	2.723000e-002	-2.517262e-002	0.0	2.232000e-002	-2.301598e-002	0.0	1.790000e-002	-2.081727e-002	0.0	1.395000e-002	-1.856586e-002	0.0	1.049000e-002	-1.627083e-002	0.0	7.520000e-003	-1.393055e-002	0.0	5.040000e-003	-1.154135e-002	0.0	3.050000e-003	-9.096191e-003	0.0	1.560000e-003	-6.600875e-003	0.0	5.600000e-004	-4.023192e-003	0.0	6.000000e-005	-1.346839e-003	0.0	0.000000e+000	0.000000e+000	0.0	6.000000e-005	1.346670e-003	0.0	5.600000e-004	4.090825e-003	0.0	1.560000e-003	6.825563e-003	0.0	3.050000e-003	9.554519e-003	0.0	5.040000e-003	1.229993e-002	0.0	7.520000e-003	1.504353e-002	0.0	1.049000e-002	1.778238e-002	0.0	1.395000e-002	2.051102e-002	0.0	1.790000e-002	2.322283e-002	0.0	2.232000e-002	2.589918e-002	0.0	2.723000e-002	2.854631e-002	0.0	3.260000e-002	3.114209e-002	0.0	3.844000e-002	3.368630e-002	0.0	4.474000e-002	3.616865e-002	0.0	5.149000e-002	3.857979e-002	0.0	5.869000e-002	4.091423e-002	0.0	6.633000e-002	4.316309e-002	0.0	7.440000e-002	4.531817e-002	0.0	8.290000e-002	4.737417e-002	0.0	9.181000e-002	4.932128e-002	0.0	1.011300e-001	5.115491e-002	0.0	1.108500e-001	5.286861e-002	0.0	1.209500e-001	5.445512e-002	0.0	1.314400e-001	5.591252e-002	0.0	1.422900e-001	5.723374e-002	0.0	1.534900e-001	5.841580e-002	0.0	1.650400e-001	5.945736e-002	0.0	1.769300e-001	6.035666e-002	0.0	1.891400e-001	6.111232e-002	0.0	2.016600e-001	6.172480e-002	0.0	2.144700e-001	6.219511e-002	0.0	2.275700e-001	6.252591e-002	0.0	2.409400e-001	6.271998e-002	0.0	2.545700e-001	6.278116e-002	0.0	2.684500e-001	6.271379e-002	0.0	2.825500e-001	6.252300e-002	0.0	2.968700e-001	6.221403e-002	0.0	3.114000e-001	6.179221e-002	0.0	3.261100e-001	6.126357e-002	0.0	3.409900e-001	6.063355e-002	0.0	3.560400e-001	5.990664e-002	0.0	3.712300e-001	5.908831e-002	0.0	3.865400e-001	5.818322e-002	0.0	4.019700e-001	5.719421e-002	0.0	4.175000e-001	5.612465e-002	0.0	4.331100e-001	5.497738e-002	0.0	4.487800e-001	5.375482e-002	0.0	4.645100e-001	5.245735e-002	0.0	4.802700e-001	5.108748e-002	0.0	4.960500e-001	4.964609e-002	0.0	5.118400e-001	4.813409e-002	0.0	5.276100e-001	4.655483e-002	0.0	5.433600e-001	4.490940e-002	0.0	5.590600e-001	4.320291e-002	0.0	5.747100e-001	4.143852e-002	0.0	5.902800e-001	3.962412e-002	0.0	6.057600e-001	3.776697e-002	0.0	6.211300e-001	3.587719e-002	0.0	6.363800e-001	3.396538e-002	0.0	6.515000e-001	3.204378e-002	0.0	6.664700e-001	3.012736e-002	0.0	6.812700e-001	2.823237e-002	0.0	6.958900e-001	2.637473e-002	0.0	7.103200e-001	2.457085e-002	0.0	7.245300e-001	2.283963e-002	0.0	7.385200e-001	2.119561e-002	0.0	7.522800e-001	1.965342e-002	0.0	7.657800e-001	1.822779e-002	0.0	7.790100e-001	1.692818e-002	0.0	7.919700e-001	1.575941e-002	0.0	8.046400e-001	1.472346e-002	0.0	8.170100e-001	1.381543e-002	0.0	8.290500e-001	1.302486e-002	0.0	8.407700e-001	1.233082e-002	0.0	8.521600e-001	1.170573e-002	0.0	8.631800e-001	1.111560e-002	0.0	8.738500e-001	1.051691e-002	0.0	8.841500e-001	9.865360e-003	0.0	8.940600e-001	9.119813e-003	0.0	9.035800e-001	8.249211e-003	0.0	9.127000e-001	7.244634e-003	0.0	9.214000e-001	6.129682e-003	0.0	9.296900e-001	4.960079e-003	0.0	9.375400e-001	3.828293e-003	0.0	9.449600e-001	2.835721e-003	0.0	9.519400e-001	2.074210e-003	0.0	9.584700e-001	1.593484e-003	0.0	9.645400e-001	1.381552e-003	0.0	9.701500e-001	1.366524e-003	0.0	9.752800e-001	1.441330e-003	0.0	9.799500e-001	1.500812e-003	0.0	9.841300e-001	1.473148e-003	0.0	9.878400e-001	1.335054e-003	0.0	9.910500e-001	1.107469e-003	0.0	9.937800e-001	8.327213e-004	0.0	9.960200e-001	5.581702e-004	0.0	9.977600e-001	3.216137e-004	0.0	9.990000e-001	1.449343e-004	0.0	9.997500e-001	3.632390e-005	0.0	1.000000e+000	0.000000e+000	0.0	1.984229e+001	2.506660e+000	0.0	1.937166e+001	4.973800e+000	0.0	1.859553e+001	7.362490e+000	0.0	1.752613e+001	9.635070e+000	0.0	1.618034e+001	1.175571e+001	0.0	1.457937e+001	1.369094e+001	0.0	1.274848e+001	1.541027e+001	0.0	1.071654e+001	1.688656e+001	0.0	8.515590e+000	1.809654e+001	0.0	6.180340e+000	1.902113e+001	0.0	3.747630e+000	1.964575e+001	0.0	1.255810e+000	1.996053e+001	0.0	-1.255810e+000	1.996053e+001	0.0	-3.747630e+000	1.964574e+001	0.0	-6.180340e+000	1.902113e+001	0.0	-8.515590e+000	1.809654e+001	0.0	-1.071654e+001	1.688656e+001	0.0	-1.274848e+001	1.541026e+001	0.0	-1.457937e+001	1.369094e+001	0.0	-1.618034e+001	1.175570e+001	0.0	-1.752613e+001	9.635070e+000	0.0	-1.859553e+001	7.362490e+000	0.0	-1.937166e+001	4.973800e+000	0.0	-1.984229e+001	2.506660e+000	0.0	-2.000000e+001	0.000000e+000	0.0	-1.984229e+001	-2.506670e+000	0.0	-1.937166e+001	-4.973800e+000	0.0	-1.859553e+001	-7.362490e+000	0.0	-1.752613e+001	-9.635080e+000	0.0	-1.618034e+001	-1.175571e+001	0.0	-1.457937e+001	-1.369094e+001	0.0	-1.274848e+001	-1.541027e+001	0.0	-1.071653e+001	-1.688656e+001	0.0	-8.515580e+000	-1.809654e+001	0.0	-6.180340e+000	-1.902113e+001	0.0	-3.747620e+000	-1.964575e+001	0.0	-1.255810e+000	-1.996053e+001	0.0	1.255810e+000	-1.996053e+001	0.0	3.747630e+000	-1.964574e+001	0.0	6.180340e+000	-1.902113e+001	0.0	8.515590e+000	-1.809654e+001	0.0	1.071654e+001	-1.688656e+001	0.0	1.274848e+001	-1.541026e+001	0.0	1.457937e+001	-1.369094e+001	0.0	1.618034e+001	-1.175570e+001	0.0	1.752614e+001	-9.635070e+000	0.0	1.859553e+001	-7.362490e+000	0.0	1.937166e+001	-4.973790e+000	0.0	1.984229e+001	-2.506660e+000	0.0	2.000000e+001	0.000000e+000	0.0	6.087442e-002	-4.306530e-002	0.0	6.603969e-001	-4.635012e-002	0.0	4.262582e-001	6.982416e-002	0.0	6.900177e-001	4.085404e-002	0.0	3.793394e-001	-6.970789e-002	0.0	9.994586e-001	-6.810969e-004	0.0	9.985514e-001	-1.247195e-003	0.0	7.736200e-001	-3.191297e-002	0.0	6.899746e-001	-4.255770e-002	0.0	-1.443292e-003	6.415069e-003	0.0	7.466868e-001	-3.530811e-002	0.0	5.839527e-001	5.477329e-002	0.0	9.927514e-001	-3.300960e-003	0.0	9.898144e-001	-3.976040e-003	0.0	5.994936e-001	5.286837e-002	0.0	7.187754e-001	-3.885862e-002	0.0	-1.565266e-003	7.692268e-004	0.0	9.863710e-001	-4.602947e-003	0.0	9.824354e-001	-5.150493e-003	0.0	-1.377234e-003	-6.214821e-003	0.0	6.453542e-001	-4.825847e-002	0.0	8.241143e-001	-2.567453e-002	0.0	7.994553e-001	-2.870691e-002	0.0	3.490585e-001	7.403022e-002	0.0	8.474700e-001	-2.283265e-002	0.0	2.475652e-001	7.517117e-002	0.0	8.694600e-001	-2.012733e-002	0.0	9.823785e-003	2.232392e-002	0.0	8.899746e-001	-1.747077e-002	0.0	7.714963e-002	-4.732861e-002	0.0	9.089314e-001	-1.476312e-002	0.0	-1.896287e-003	-3.082079e-003	0.0	9.418198e-001	-9.531541e-003	0.0	9.262379e-001	-1.202673e-002	0.0	1.805397e-002	-2.601175e-002	0.0	4.260055e-001	-6.826231e-002	0.0	8.586450e-001	-2.146498e-002	0.0	9.556616e-001	-7.657206e-003	0.0	9.780056e-001	-5.632621e-003	0.0	9.677438e-001	-6.483124e-003	0.0	1.583686e-001	-6.095046e-002	0.0	8.996555e-001	-1.612712e-002	0.0	7.602857e-001	-3.358917e-002	0.0	9.971276e-001	-1.942866e-003	0.0	5.993863e-001	-5.387623e-002	0.0	4.417241e-001	-6.753321e-002	0.0	5.366811e-001	-6.058240e-002	0.0	4.733276e-001	-6.570010e-002	0.0	5.050181e-001	-6.337439e-002	0.0	4.891614e-001	-6.459735e-002	0.0	1.250620e-001	-5.651708e-002	0.0	2.796824e-002	-3.120383e-002	0.0	3.948008e-001	-6.934857e-002	0.0	4.635263e-002	-3.852
[...]
POINT_DATA 5233

SCALARS Density float 1
LOOKUP_TABLE default
1.148025e+000	1.114405e+000	1.089372e+000	1.063955e+000	1.038847e+000	1.018809e+000	1.010842e+000	1.018549e+000	1.039135e+000	1.065978e+000	1.091795e+000	1.110575e+000	1.119843e+000	1.119648e+000	1.111474e+000	1.097796e+000	1.081499e+000	1.065592e+000	1.052758e+000	1.044249e+000	1.039850e+000	1.038431e+000	1.038603e+000	1.039231e+000	1.039548e+000	1.039191e+000	1.038082e+000	1.036297e+000	1.033990e+000	1.031302e+000	1.028324e+000	1.025089e+000	1.021556e+000	1.017654e+000	1.013306e+000	1.008377e+000	1.002813e+000	9.964990e-001	9.894369e-001	9.815994e-001	9.730418e-001	9.638131e-001	9.540127e-001	9.437335e-001	9.331446e-001	9.224207e-001	9.116943e-001	9.009360e-001	8.902680e-001	8.803205e-001	8.719317e-001	8.650029e-001	8.577890e-001	8.477181e-001	8.340614e-001	8.203219e-001	8.108421e-001	8.068216e-001	8.066413e-001	8.082693e-001	8.103753e-001	8.124617e-001	8.144438e-001	8.163930e-001	8.183973e-001	8.205148e-001	8.228258e-001	8.253346e-001	8.280146e-001	8.308148e-001	8.337918e-001	8.371299e-001	8.410719e-001	8.456909e-001	8.509286e-001	8.566637e-001	8.629593e-001	8.699624e-001	8.776894e-001	8.861345e-001	8.953606e-001	9.053694e-001	9.162426e-001	9.280245e-001	9.408326e-001	9.548661e-001	9.702786e-001	9.873460e-001	1.006489e+000	1.028067e+000	1.052778e+000	1.081442e+000	1.114680e+000	1.153385e+000	1.197544e+000	1.245421e+000	1.291377e+000	1.336146e+000	1.352146e+000	1.349253e+000	1.347589e+000	1.324579e+000	1.273528e+000	1.225467e+000	1.175946e+000	1.129050e+000	1.086302e+000	1.047812e+000	1.013016e+000	9.816605e-001	9.532170e-001	9.271274e-001	9.031704e-001	8.809402e-001	8.601919e-001	8.407776e-001	8.224211e-001	8.048872e-001	7.881593e-001	7.722222e-001	7.571696e-001	7.430136e-001	7.295603e-001	7.164759e-001	7.036587e-001	6.913635e-001	6.800892e-001	6.698089e-001	6.602053e-001	6.509303e-001	6.420863e-001	6.339159e-001	6.266848e-001	6.203752e-001	6.149203e-001	6.101456e-001	6.059041e-001	6.021231e-001	5.986326e-001	5.953905e-001	5.923328e-001	5.895641e-001	5.871885e-001	5.850740e-001	5.829155e-001	5.805874e-001	5.780362e-001	5.753831e-001	5.727802e-001	5.698179e-001	5.675581e-001	5.650508e-001	5.646818e-001	5.627907e-001	5.584963e-001	6.118717e-001	8.120047e-001	9.915191e-001	1.004424e+000	1.001047e+000	1.004278e+000	1.009683e+000	1.014056e+000	1.018272e+000	1.022472e+000	1.026355e+000	1.029712e+000	1.032438e+000	1.034349e+000	1.035329e+000	1.035225e+000	1.033933e+000	1.031363e+000	1.027507e+000	1.022499e+000	1.016699e+000	1.010836e+000	1.006005e+000	1.003698e+000	1.005548e+000	1.012717e+000	1.025214e+000	1.041418e+000	1.058383e+000	1.073150e+000	1.083221e+000	1.086662e+000	1.082521e+000	1.071096e+000	1.054575e+000	1.037399e+000	1.024668e+000	1.020690e+000	1.026898e+000	1.040850e+000	1.058813e+000	1.077864e+000	1.098146e+000	1.118306e+000	1.117563e+000	9.983993e-001	9.995893e-001	9.997285e-001	9.995777e-001	9.994876e-001	9.993701e-001	9.992323e-001	9.990624e-001	9.988778e-001	9.987601e-001	9.987087e-001	9.988074e-001	9.990147e-001	9.993828e-001	9.996859e-001	9.999288e-001	1.000065e+000	1.000151e+000	1.000203e+000	1.000228e+000	1.000242e+000	1.000248e+000	1.000253e+000	1.000261e+000	1.000268e+000	1.000279e+000	1.000300e+000	1.000327e+000	1.000365e+000	1.000421e+000	1.000484e+000	1.000588e+000	1.000688e+000	1.000858e+000	1.001015e+000	1.001209e+000	1.001410e+000	1.001486e+000	1.001502e+000	1.001380e+000	1.001243e+000	1.001051e+000	1.000873e+000	1.000700e+000	1.000550e+000	1.000361e+000	1.000204e+000	1.000254e+000	9.991193e-001	9.975910e-001	9.360528e-001	9.855285e-001	5.857680e-001	1.013358e+000	8.129887e-001	1.122323e+000	1.103678e+000	1.025676e+000	9.990599e-001	1.305763e+000	1.018607e+000	5.700744e-001	1.040955e+000	1.028879e+000	6.671810e-001	1.009941e+000	1.345637e+000	1.027618e+000	1.037618e+000	1.318497e+000	9.777438e-001	1.036124e+000	1.031571e+000	5.990622e-001	1.038710e+000	6.325394e-001	1.039488e+000	1.096705e+000	1.041491e+000	9.124834e-001	1.051343e+000	1.343468e+000	1.097351e+000	1.072922e+000	1.065734e+000	8.463144e-001	1.039229e+000	1.107514e+000	1.055122e+000	1.091874e+000	8.507833e-001	1.044990e+000	1.022301e+000	1.081263e+000	9.507745e-001	8.588662e-001	9.101542e-001	8.735715e-001	8.895911e-001	8.806706e-001	8.686995e-001	1.018016e+000	8.194115e-001	9.640619e-001	8.314527e-001	8.164617e-001	8.124548e-001	9.980757e-001	8.204189e-001	1.085853e+000	8.561879e-001	8.386212e-001	9.021088e-001	8.838098e-001	9.307048e-001	8.460727e-001	9.603015e-001	1.039984e+000	1.040398e+000	1.059985e+000	1.163539e+000	1.025306e+000	1.060857e+000	1.105192e+000	1.074874e+000	1.267399e+000	1.037692e+000	8.269745e-001	9.204764e-001	1.014499e+000	1.028765e+000	8.758679e-001	8.324235e-001	9.408584e-001	9.926423e-001	9.494309e-001	1.203384e+000	1.094454e+000	8.114122e-001	8.420897e-001	1.165867e+000	8.295894e-001	8.925678e-001	8.184509e-001	8.246087e-001	8.672348e-001	1.004802e+000	1.337184e+000	1.285151e+000	5.695334e-001	1.346967e+000	9.654206e-001	8.709506e-001	9.146620e-001	7.516987e-001	5.880729e-001	1.071621e+000	5.698225e-001	5.781329e-001	1.059117e+000	1.075245e+000	1.010725e+000	5.754249e-001	5.833189e-001	5.929235e-001	1.036515e+000	1.016012e+000	8.144525e-001	1.047220e+000	1.075912e+000	1.061961e+000	7.812708e-001	8.511274e-001	6.151130e-001	6.259874e-001	6.875839e-001	6.063956e-001	5.807829e-001	5.904164e-001	7.112963e-001	7.378880e-001	1.013681e+000	6.670200e-001	6.483126e-001	1.003615e+000	5.608801e-001	1.027714e+000	1.020900e+000	1.034032e+000	1.032424e+000	1.025451e+000	1.031750e+000	1.011449e+000	1.016714e+000	1.071204e+000	1.024650e+000	1.069267e+000	1.021166e+000	1.012881e+000	1.033414e+000	1.029065e+000	1.030400e+000	1.033680e+000	1.017066e+000	1.024517e+000	1.003306e+000	1.009223e+000	5.664730e-001	9.660791e-001	6.574211e-001	6.400186e-001	6.989836e-001	6.770697e-001	8.920358e-001	7.244283e-001	1.059425e+000	9.390500e-001	8.354425e-001	1.179811e+000	1.103135e+000	1.034051e+000	8.143995e-001	8.997356e-001	1.224522e+000	9.940561e-001	1.136918e+000	7.974215e-001	8.323254e-001	6.202038e-001	7.660667e-001	1.037061e+000	1.031990e+000	6.105474e-001	1.034077e+000	1.042750e+000	6.026350e-001	5.958024e-001	1.049726e+000	1.131973e+000	1.088870e+000	1.105079e+000	9.693082e-001	9.801960e-001	1.056041e+000	5.729611e-001	1.245310e+000	1.127090e+000	9.237669e-001	8.621793e-001	8.224438e-001	8.430134e-001	1.284161e+000	1.316462e+000	8.272525e-001	1.001214e+000	1.057604e+000	1.162203e+000	5.584767e-001	9.953569e-001	1.026145e+000	1.040620e+000	8.212367e-001	1.038617e+000	1.035905e+000	9.093956e-001	1.297351e+000	8.407481e-001	1.099799e+000	1.094639e+000	8.622665e-001	1.006514e+000	9.818259e-001	8.685440e-001	9.200189e-001	8.223621e-001	1.045656e+000	1.029047e+000	1.135091e+000	1.032326e+000	1.009119e+000	1.027390e+000	7.765642e-001	1.012998e+000	7.086741e-001	1.018528e+000	1.041184e+000	6.077709e-001	5.761795e-001	1.066174e+000	1.016867e+000	1.045431e+000	1.067853e+000	1.046145e+000	6.482587e-001	6.121024e-001	6.566927e-001	7.918152e-001	9.889090e-001	8.442254e-001	1.098624e+000	7.337962e-001	9.029038e-001	1.060460e+000	1.054146e+000	1.017113e+000	8.567447e-001	1.151676e+000	1.078714e+000	1.065485e+000	1.173045e+000	1.250190e+000	1.196791e+000	1.338932e+000	1.340246e+000	1.072687e+000	1.167379e+000	9.440434e-001	1.091952e+000	1.058545e+000	5.919297e-001	9.191095e-001	1.042755e+000	1.040777e+000	5.945239e-001	1.046182e+000	1.324679e+000	8.586020e-001	5.946626e-001	1.037439e+000	6.274359e-001	1.039623e+000	1.042571e+000	9.315342e-001	1.050570e+000	1.066468e+000	1.092267e+000	1.026517e+000	1.095715e+000	1.088656e+000	1.052064e+000	8.752328e-001	1.019396e+000	1.022927e+000	1.074453e+000	8.756112e-001	8.823446e-001	8.903015e-001	1.048483e+000	8.317100e-001	8.452391e-001	8.193339e-001	9.888240e-001	1.076173e+000	1.085295e+000	8.684660e-001	8.996158e-001	9.288603e-001	9.572202e-001	1.078260e+000	1.065088e+000	1.011228e+000	1.015550e+000	8.907225e-001	8.826121e-001	9.385475e-001	9.480465e-001	9.726007e-001	9.577239e-001	1.129544e+000	8.179580e-001	8.182847e-001	8.520513e-001	8.479448e-001	8.375324e-001	8.345663e-001	8.251866e-001	8.232091e-001	8.318887e-001	1.336065e+000	1.232894e+000	9.252209e-001	1.041452e+000	5.754686e-001	5.791751e-001	5.815844e-001	5.841142e-001	1.053239e+000	1.065781e+000	1.033834e+000	5.867227e-001	5.892388e-001	5.975802e-001	1.025649e+000	1.060944e+000	8.618749e-001	8.818370e-001	6.406356e-001	6.336434e-001	7.208250e-001	7.477357e-001	7.619766e-001	1.032469e+000	1.025635e+000	1.022630e+000	1.031778e+000	1.029811e+000	1.019939e+000	1.021276e+000	1.024413e+000	1.031515e+000	1.032422e+000	1.030308e+000	1.028255e+000	1.019220e+000	1.015814e+000	1.002592e+000	1.006851e+000	5.695919e-001	5.729319e-001	1.010126e+000	8.400078e-001	6.657295e-001	6.756556e-001	6.861566e-001	6.972670e-001	1.064421e+000	9.491444e-001	9.749949e-001	1.031679e+000	1.033984e+000	8.995079e-001	9.092726e-001	1.212300e+000	1.002702e+000	8.079503e-001	8.250218e-001	6.166893e-001	6.217833e-001	6.005973e-001	6.039517e-001	1.052962e+000	1.043427e+000	9.659413e-001	9.741705e-001	1.006679e+000	1.267633e+000	8.294561e-001	1.303116e+000	8.335171e-001	8.325938e-001	1.026603e+000	9.188041e-001	1.061789e+000	1.048663e+000	1.046248e+000	1.061396e+000	1.201462e+000	1.054638e+000	1.091962e+000	1.110715e+000	1.084219e+000	1.143609e+000	1.078778e+000	1.316417e+000	9.172438e-001	1.069194e+000	1.052407e+000	5.640869e-001	1.109682e+000	1.190931e+000	1.003318e+000	1.252026e+000	1.008155e+000	1.103830e+000	1.040688e+000	1.160383e+000	8.268109e-001	1.039085e+000	9.980281e-001	1.060644e+000	1.131322e+000	1.050393e+000	5.822834e-001	1.058815e+000	1.006345e+000	1.062771e+000	5.839243e-001	6.420686e-001	6.182143e-001	7.321894e-001	8.736055e-001	1.103343e+000	1.275925e+000	1.262478e+000	1.068902e+000	1.294268e+000	1.083696e+000	9.280189e-001	1.333372e+000	8.686629e-001	8.778542e-001	1.055703e+000	1.133313e+000	1.028053e+000	1.030322e+000	1.012172e+000	1.047019e+000	1.061413e+000	1.021342e+000	1.021222e+000	6.233931e-001	6.351862e-001	6.660931e-001	8.038278e-001	9.857661e-001	9.921237e-001	8.500781e-001	1.100551e+000	7.446977e-001	1.054879e+000	1.071380e+000	1.167216e+000	1.234741e+000	1.221892e+000	1.319391e+000	1.034286e+000	1.135029e+000	1.121073e+000	1.077495e+000	1.049750e+000	5.729057e-001	8.697065e-001	5.993795e-001	1.035909e+000	1.037555e+000	1.042708e+000	1.045564e+000	9.523623e-001	9.397215e-001	1.049576e+000	1.055051e+000	1.086038e+000	1.086614e+000	1.052618e+000	1.020252e+000	1.023535e+000	1.072590e+000	8.846206e-001	8.919804e-001	8.450996e-001	8.584040e-001	1.014961e+000	1.076448e+000	1.082374e+000	8.822181e-001	8.751250e-001	9.280509e-001	9.372164e-001	1.068959e+000	1.059891e+000	1.012566e+000	1.016536e+000	9.073174e-001	8.980645e-001	8.897326e-001	9.462585e-001	9.550301e-001	9.975072e-001	9.812504e-001	9.661524e-001	8.252939e-001	8.248126e-001	8.269006e-001	8.632296e-001	8.584441e-001	8.541061e-001	8.464191e-001	8.430553e-001	8.305582e-001	8.286239e-001	8.400290e-001	9.364599e-001	5.859163e-001	5.884191e-001	1.058958e+000	5.907673e-001	5.934810e-001	5.962119e-001	6.026985e-001	1.032851e+000	8.934538e-001	9.144741e-001	6.493730e-001	6.575559e-001	7.581972e-001	7.732107e-001	7.885358e-001	1.023063e+000	1.027119e+000	1.023217e+000	1.022349e+000	1.024198e+000	1.026224e+000	1.029563e+000	1.030442e+000	1.030693e+000	1.029287e+000	1.027764e+000	1.025584e+000	1.020249e+000	1.017343e+000	1.014603e+000	1.000738e+000	5.791991e-001	5.795135e-001	1.012335e+000	9.765774e-001	6.837995e-001	6.754025e-001	6.851719e-001	6.961032e-001	7.077120e-001	7.199931e-001	9.595154e-001	9.844073e-001	1.029333e+000	1.031828e+000	1.034000e+000	9.003409e-001	9.094634e-001	1.011212e+000	1.039206e+000	8.198060e-001	8.368387e-001	8.547607e-001	6.290635e-001	6.062985e-001	6.098647e-001	6.137426e-001	1.053871e+000	1.047245e+000	1.039890e+000	9.634062e-001	9.713675e-001	9.787966e-001	8.372773e-001	8.348279e-001	1.281806e+000	9.253391e-001	1.067011e+000	1.050294e+000	9.273640e-001	1.295713e+000	1.096135e+000	1.063934e+000	1.069598e+000	1.040732e+000	1.054831e+000	5.926347e-001	1.256807e+000	1.100592e+000	1.182664e+000	1.056873e+000	1.060317e+000	1.243371e+000	1.007697e+000	1.218676e+000	1.114098e+000	1.139309e+000	1.027213e+000	8.763027e-001	1.083181e+000	8.473713e-001	9.362837e-001	8.800793e-001	8.390534e-001	1.049700e+000	5.730553e-001	1.055678e+000	1.052811e+000	1.027300e+000	7.581641e-001	6.607673e-001	1.057748e+000	9.047956e-001	1.040163e+000	1.080701e+000	1.051124e+000	1.079811e+000	1.069754e+000	1.105873e+000	1.000532e+000	1.209597e+000	1.005284e+000	1.009949e+000	1.130677e+000	1.062929e+000	1.156510e+000	1.027835e+000	5.897587e-001	6.383611e-001	1.272083e+000	1.129985e+000	1.009280e+000	1.024447e+000	6.324424e-001	6.454695e-001	6.524992e-001	9.893843e-001	9.950977e-001	1.052252e+000	1.159487e+000	1.189668e+000	1.235540e+000	1.298931e+000	1.061227e+000	1.074834e+000	1.056557e+000	5.787118e-001	1.036234e+000	1.038173e+000	1.042432e+000	1.045166e+000	9.605751e-001	9.479711e-001	1.048653e+000	1.053058e+000	1.058247e+000	1.079128e+000	1.078149e+000	1.021050e+000	1.023995e+000	1.070840e+000	8.874154e-001	8.945654e-001	8.591890e-001	8.708502e-001	1.074510e+000	1.077784e+000	8.900325e-001	8.823323e-001	9.366863e-001	1.063982e+000	1.059012e+000	1.013641e+000	1.017953e+000	9.152142e-001	9.060154e-001	8.978810e-001	9.449431e-001	9.536483e-001	1.022747e+000	1.005520e+000	9.890784e-001	9.740922e-001	8.338204e-001	8.330756e-001	8.340697e-001	8.382502e-001	8.708949e-001	8.659043e-001	8.612040e-001	8.569746e-001	8.531230e-001	8.353009e-001	8.370608e-001	8.496841e-001	5.940970e-001	1.054603e+000	1.056375e+000	5.967983e-001	5.991910e-001	6.023486e-001	6.054413e-001	6.093548e-001	9.255808e-001	9.475197e-001	6.688698e-001	6.782992e-001	7.711127e-001	7.851561e-001	8.009071e-001	8.169876e-001	1.032799e+000	1.028736e+000	1.025895e+000	1.024084e+000	1.024610e+000	1.025555e+000	1.026555e+000	1.028370e+000	1.028287e+000	1.028604e+000	1.026497e+000	1.024287e+000	1.022703e+000	1.019876e+000	1.017483e+000	1.013762e+000	1.010926e+000	5.888613e-001	5.875776e-001	1.013295e+000	1.011015e+000	8.351302e-001	6.159690e-001	6.873635e-001	6.976183e-001	7.077021e-001	7.194391e-001	7.315896e-001	7.447148e-001	9.697674e-001	9.927979e-001	1.029484e+000	1.032215e+000	1.034272e+000	9.025135e-001	9.094632e-001	9.189538e-001	1.018286e+000	1.044897e+000	1.071765e+000	8.328831e-001	8.492856e-001	8.670394e-001	8.855363e-001	6.132020e-001	6.177778e-001	6.220675e-001	6.267212e-001	1.037875e+000	1.048476e+000	1.043358e+000	9.614032e-001	9.691899e-001	9.762902e-001	9.830685e-001	8.465423e-001	8.437494e-001	8.412547e-001	1.129266e+000	1.064557e+000	1.068591e+000	1.107210e+000	1.152321e+000	1.008989e+000	9.338517e-001	1.175150e+000	1.051503e+000	1.220763e+000	1.065526e+000	8.852463e-001	7.867203e-001	1.126703e+000	1.204422e+000	1.270956e+000	1.313159e+000	1.312973e+000	1.304235e+000	1.239806e+000	1.077461e+000	6.496208e-001	1.065295e+000	1.064786e+000	1.067676e+000	1.025804e+000	8.616623e-001	1.058546e+000	1.036573e+000	1.048265e+000	5.888736e-001	5.979212e-001	1.021732e+000	1.023411e+000	6.017338e-001	9.312211e-001	6.409651e-001	1.054907e+000	9.448141e-001	1.096682e+000	1.051397e+000	1.306235e+000	1.129583e+000	1.116420e+000	1.064490e+000	1.047132e+000	1.260584e+000	1.100141e+000	1.198215e+000	1.052692e+000	1.226517e+000	1.111249e+000	1.122532e+000	1.107333e+000	8.433633e-001	8.463908e-001	1.052439e+000	5.898452e-001	1.051051e+000	1.061525e+000	1.000168e+000	1.250513e+000	6.549263e-001	6.650167e-001	6.711742e-001	9.896144e-001	1.152707e+000	1.178920e+000	1.276040e+000	1.086638e+000	1.037100e+000	1.039074e+000	1.041439e+000	1.044199e+000	9.564179e-001	9.693724e-001	1.047425e+000	1.051204e+000	1.055151e+000	1.060117e+000	1.072780e+000	1.071314e+000	1.020359e+000	1.069938e+000	8.893484e-001	8.972373e-001	8.711005e-001	8.817150e-001	1.071277e+000	1.072706e+000	8.976841e-001	8.893090e-001	1.062345e+000	1.060809e+000	1.015341e+000	9.233557e-001	9.133602e-001	9.074741e-001	9.481180e-001	1.029828e+000	1.012954e+000	9.968671e-001	9.829188e-001	8.431591e-001	8.409984e-001	8.426766e-001	8.435107e-001	8.509407e-001	8.781065e-001	8.742628e-001	8.677750e-001	8.647342e-001	8.594020e-001	1.052233e+000	1.053030e+000	1.053314e+000	6.024490e-001	6.063432e-001	6.082102e-001	6.128453e-001	6.154860e-001	9.368810e-001	9.583597e-001	6.825452e-001	6.895809e-001	7.964946e-001	8.134191e-001	8.304832e-001	1.032743e+000	1.029445e+000	1.027431e+000	1.025846e+000	1.025461e+000	1.025300e+000	1.025557e+000	1.026229e+000	1.026135e+000	1.025595e+000	1.020151e+000	1.014268e+000	1.007901e+000	9.705014e-001	6.414624e-001	7.021045e-001	7.096072e-001	7.229912e-001	7.310461e-001	7.456674e-001	7.584990e-001	7.722936e-001	9.800385e-001	1.001595e+000	1.030188e+000	1.032767e+000	1.034548e+000	9.055255e-001	9.154666e-001	1.024561e+000	1.049943e+000	1.074631e+000	8.469988e-001	8.631984e-001	8.800489e-001	8.989519e-001	9.177905e-001	6.211264e-001	6.244931e-001	6.311931e-001	6.368276e-001	1.044868e+000	1.040409e+000	9.635751e-001	9.773748e-001	8.570975e-001	8.526161e-001	8.510054e-001	8.473572e-001	1.103544e+000	1.087455e+000	1.167367e+000	1.280814e+000	1.129563e+000	1.063482e+000	1.054649e+000	1.231264e+000	1.050172e+000	1.082246e+000	1.063639e+000	1.256378e+000	1.069313e+000	1.147177e+000	6.555725e-001	1.107592e+000	1.145890e+000	1.210615e+000	1.126983e+000	1.064888e+000	9.278100e-001	1.052781e+000	8.518820e-001	1.065307e+000	1.061498e+000	9.720140e-001	9.421768e-001	8.895676e-001	1.223416e+000	8.777457e-001	9.660257e-001	9.542591e-001	8.189012e-001	1.051195e+000	1.036273e+000	1.249839e+000	1.122661e+000	1.066475e+000	1.101815e+000	1.051628e+000	1.309629e+000	1.240902e+000	1.065966e+000	1.011486e+000	6.076625e-001	6.112942e-001	1.057360e+000	1.112943e+000	1.067888e+000	1.284089e+000	1.122124e+000	1.052643e+000	1.206382e+000	1.187264e+000	5.857313e-001	1.088139e+000	1.049148e+000	1.046836e+000	6.042842e-001	6.709830e-001	6.889317e-001	1.004140e+000	1.168707e+000	1.190693e+000	1.108025e+000	1.039095e+000	1.044096e+000	9.777980e-001	1.050458e+000	1.056429e+000	1.067628e+000	1.069736e+000	8.943888e-001	1.067513e+000	1.067953e+000	9.014416e-001	1.062871e+000	1.017091e+000	1.022139e+000	9.272923e-001	9.151841e-001	9.429813e-001	1.036235e+000	1.019043e+000	1.003472e+000	9.932096e-001	8.501895e-001	8.530777e-001	8.637594e-001	8.783604e-001	8.689699e-001	1.051042e+000	1.050828e+000	6.174803e-001	6.254410e-001	9.678794e-001	7.087812e-001	8.432337e-001	1.023610e+000	1.030615e+000	1.026889e+000	1.025306e+000	1.024706e+000	1.024428e+000	1.021941e+000	1.019586e+000	1.015388e+000	1.007042e+000	1.012819e+000	1.025110e+000	8.324582e-001	6.071111e-001	7.302684e-001	7.525001e-001	7.739158e-001	7.841174e-001	8.009752e-001	9.898444e-001	1.010224e+000	1.027285e+000	1.031819e+000	1.035429e+000	9.070739e-001	9.162604e-001	1.030646e+000	1.053636e+000	1.076932e+000	1.099365e+000	8.614697e-001	8.776636e-001	8.937637e-001	9.115939e-001	9.328183e-001	9.471421e-001	6.354242e-001	6.462447e-001	1.045049e+000	1.041547e+000	9.583615e-001	9.841292e-001	9.948978e-001	8.615191e-001	8.558476e-001	1.060494e+000	1.107830e+000	1.100974e+000	1.073004e+000	1.018462e+000	1.055925e+000	1.104571e+000	1.079204e+000	1.176960e+000	1.124612e+000	1.087959e+000	1.073858e+000	1.159287e+000	1.230199e+000	1.237674e+000	1.049232e+000	1.013505e+000	6.657740e-001	1.065031e+000	1.052186e+000	1.089253e+000	9.684826e-001	1.139531e+000	1.159825e+000	8.783110e-001	1.062870e+000	9.791170e-001	9.391456e-001	1.063242e+000	1.063388e+000	1.072495e+000	1.058017e+000	1.102090e+000	1.052152e+000	1.053686e+000	1.047328e+000	6.978427e-001	5.996199e-001	9.993151e-001	9.853302e-001	1.084135e+000	1.090133e+000	1.288980e+000	1.063553e+000	1.048319e+000	1.123564e+000	1.064357e+000	1.213761e+000	1.141941e+000	9.265917e-001	1.223187e+000	9.765134e-001	9.622780e-001	1.050976e+000	1.260687e+000	1.063985e+000	1.066220e+000	1.007261e+000	1.262478e+000	1.122644e+000	9.998936e-001	1.208397e+000	1.193219e+000	6.