# vtk DataFile Version 3.0
vtk output
ASCII
DATASET UNSTRUCTURED_GRID
POINTS 5233 float
9.997500e-001	-3.633437e-005	0.0	9.990000e-001	-1.455945e-004	0.0	9.977600e-001	-3.288347e-004	0.0	9.960200e-001	-5.969858e-004	0.0	9.937800e-001	-9.720034e-004	0.0	9.910500e-001	-1.488550e-003	0.0	9.878400e-001	-2.188947e-003	0.0	9.841300e-001	-3.114295e-003	0.0	9.799500e-001	-4.261585e-003	0.0	9.752800e-001	-5.586759e-003	0.0	9.701500e-001	-6.973112e-003	0.0	9.645400e-001	-8.278093e-003	0.0	9.584700e-001	-9.349584e-003	0.0	9.519400e-001	-1.008707e-002	0.0	9.449600e-001	-1.046600e-002	0.0	9.375400e-001	-1.054378e-002	0.0	9.296900e-001	-1.043716e-002	0.0	9.214000e-001	-1.028612e-002	0.0	9.127000e-001	-1.022167e-002	0.0	9.035800e-001	-1.034283e-002	0.0	8.940600e-001	-1.070948e-002	0.0	8.841500e-001	-1.134520e-002	0.0	8.738500e-001	-1.224770e-002	0.0	8.631800e-001	-1.339654e-002	0.0	8.521600e-001	-1.476255e-002	0.0	8.407700e-001	-1.631964e-002	0.0	8.290500e-001	-1.803497e-002	0.0	8.170100e-001	-1.988173e-002	0.0	8.046400e-001	-2.183902e-002	0.0	7.919700e-001	-2.388194e-002	0.0	7.790100e-001	-2.599058e-002	0.0	7.657800e-001	-2.814506e-002	0.0	7.522800e-001	-3.033039e-002	0.0	7.385200e-001	-3.253168e-002	0.0	7.245300e-001	-3.473283e-002	0.0	7.103200e-001	-3.692302e-002	0.0	6.958900e-001	-3.909512e-002	0.0	6.812700e-001	-4.123945e-002	0.0	6.664700e-001	-4.335121e-002	0.0	6.515000e-001	-4.542695e-002	0.0	6.363800e-001	-4.746270e-002	0.0	6.211300e-001	-4.945502e-002	0.0	6.057600e-001	-5.140163e-002	0.0	5.902800e-001	-5.329964e-002	0.0	5.747100e-001	-5.514400e-002	0.0	5.590600e-001	-5.692978e-002	0.0	5.433600e-001	-5.864860e-002	0.0	5.276100e-001	-6.029429e-002	0.0	5.118400e-001	-6.185651e-002	0.0	4.960500e-001	-6.332722e-002	0.0	4.802700e-001	-6.469504e-002	0.0	4.645100e-001	-6.595040e-002	0.0	4.487800e-001	-6.708379e-002	0.0	4.331100e-001	-6.808488e-002	0.0	4.175000e-001	-6.894614e-002	0.0	4.019700e-001	-6.965969e-002	0.0	3.865400e-001	-7.021901e-002	0.0	3.712300e-001	-7.061910e-002	0.0	3.560400e-001	-7.085669e-002	0.0	3.409900e-001	-7.092927e-002	0.0	3.261100e-001	-7.083599e-002	0.0	3.114000e-001	-7.057728e-002	0.0	2.968700e-001	-7.015440e-002	0.0	2.825500e-001	-6.957044e-002	0.0	2.684500e-001	-6.882907e-002	0.0	2.545700e-001	-6.793392e-002	0.0	2.409400e-001	-6.689125e-002	0.0	2.275700e-001	-6.570696e-002	0.0	2.144700e-001	-6.438742e-002	0.0	2.016600e-001	-6.294069e-002	0.0	1.891400e-001	-6.137307e-002	0.0	1.769300e-001	-5.969369e-002	0.0	1.650400e-001	-5.791098e-002	0.0	1.534900e-001	-5.603540e-002	0.0	1.422900e-001	-5.407644e-002	0.0	1.314400e-001	-5.204198e-002	0.0	1.209500e-001	-4.994168e-002	0.0	1.108500e-001	-4.778978e-002	0.0	1.011300e-001	-4.559235e-002	0.0	9.181000e-002	-4.336181e-002	0.0	8.290000e-002	-4.110837e-002	0.0	7.440000e-002	-3.883930e-002	0.0	6.633000e-002	-3.656665e-002	0.0	5.869000e-002	-3.429643e-002	0.0	5.149000e-002	-3.203654e-002	0.0	4.474000e-002	-2.979399e-002	0.0	3.844000e-002	-2.757119e-002	0.0	3.260000e-002	-2.537236e-002	0.0	2.723000e-002	-2.320047e-002	0.0	2.232000e-002	-2.104811e-002	0.0	1.790000e-002	-1.892344e-002	0.0	1.395000e-002	-1.680933e-002	0.0	1.049000e-002	-1.470577e-002	0.0	7.520000e-003	-1.260042e-002	0.0	5.040000e-003	-1.047711e-002	0.0	3.050000e-003	-8.314142e-003	0.0	1.560000e-003	-6.097977e-003	0.0	5.600000e-004	-3.776025e-003	0.0	6.000000e-005	-1.296887e-003	0.0	0.000000e+000	0.000000e+000	0.0	6.000000e-005	1.439502e-003	0.0	5.600000e-004	4.411195e-003	0.0	1.560000e-003	7.302826e-003	0.0	3.050000e-003	1.008928e-002	0.0	5.040000e-003	1.279011e-002	0.0	7.520000e-003	1.539313e-002	0.0	1.049000e-002	1.790627e-002	0.0	1.395000e-002	2.033717e-002	0.0	1.790000e-002	2.269346e-002	0.0	2.232000e-002	2.497303e-002	0.0	2.723000e-002	2.719497e-002	0.0	3.260000e-002	2.935390e-002	0.0	3.844000e-002	3.146215e-002	0.0	4.474000e-002	3.352271e-002	0.0	5.149000e-002	3.553833e-002	0.0	5.869000e-002	3.751373e-002	0.0	6.633000e-002	3.944959e-002	0.0	7.440000e-002	4.134577e-002	0.0	8.290000e-002	4.320325e-002	0.0	9.181000e-002	4.501755e-002	0.0	1.011300e-001	4.678744e-002	0.0	1.108500e-001	4.850853e-002	0.0	1.209500e-001	5.017400e-002	0.0	1.314400e-001	5.178114e-002	0.0	1.422900e-001	5.332026e-002	0.0	1.534900e-001	5.478454e-002	0.0	1.650400e-001	5.616796e-002	0.0	1.769300e-001	5.746286e-002	0.0	1.891400e-001	5.866069e-002	0.0	2.016600e-001	5.975432e-002	0.0	2.144700e-001	6.073631e-002	0.0	2.275700e-001	6.160146e-002	0.0	2.409400e-001	6.234387e-002	0.0	2.545700e-001	6.295936e-002	0.0	2.684500e-001	6.344481e-002	0.0	2.825500e-001	6.379783e-002	0.0	2.968700e-001	6.401832e-002	0.0	3.114000e-001	6.410700e-002	0.0	3.261100e-001	6.406597e-002	0.0	3.409900e-001	6.389879e-002	0.0	3.560400e-001	6.360981e-002	0.0	3.712300e-001	6.320482e-002	0.0	3.865400e-001	6.269044e-002	0.0	4.019700e-001	6.207302e-002	0.0	4.175000e-001	6.135976e-002	0.0	4.331100e-001	6.055785e-002	0.0	4.487800e-001	5.967419e-002	0.0	4.645100e-001	5.871379e-002	0.0	4.802700e-001	5.768244e-002	0.0	4.960500e-001	5.658360e-002	0.0	5.118400e-001	5.541933e-002	0.0	5.276100e-001	5.419185e-002	0.0	5.433600e-001	5.289980e-002	0.0	5.590600e-001	5.154309e-002	0.0	5.747100e-001	5.011820e-002	0.0	5.902800e-001	4.862385e-002	0.0	6.057600e-001	4.705695e-002	0.0	6.211300e-001	4.541597e-002	0.0	6.363800e-001	4.369957e-002	0.0	6.515000e-001	4.190815e-002	0.0	6.664700e-001	4.004578e-002	0.0	6.812700e-001	3.811987e-002	0.0	6.958900e-001	3.614029e-002	0.0	7.103200e-001	3.412101e-002	0.0	7.245300e-001	3.208332e-002	0.0	7.385200e-001	3.004868e-002	0.0	7.522800e-001	2.804403e-002	0.0	7.657800e-001	2.610239e-002	0.0	7.790100e-001	2.425553e-002	0.0	7.919700e-001	2.253354e-002	0.0	8.046400e-001	2.096621e-002	0.0	8.170100e-001	1.957566e-002	0.0	8.290500e-001	1.837627e-002	0.0	8.407700e-001	1.736559e-002	0.0	8.521600e-001	1.652887e-002	0.0	8.631800e-001	1.583805e-002	0.0	8.738500e-001	1.524789e-002	0.0	8.841500e-001	1.470693e-002	0.0	8.940600e-001	1.416095e-002	0.0	9.035800e-001	1.355946e-002	0.0	9.127000e-001	1.286432e-002	0.0	9.214000e-001	1.205555e-002	0.0	9.296900e-001	1.112991e-002	0.0	9.375400e-001	1.010678e-002	0.0	9.449600e-001	9.015050e-003	0.0	9.519400e-001	7.894031e-003	0.0	9.584700e-001	6.784844e-003	0.0	9.645400e-001	5.724604e-003	0.0	9.701500e-001	4.740610e-003	0.0	9.752800e-001	3.853650e-003	0.0	9.799500e-001	3.067839e-003	0.0	9.841300e-001	2.387811e-003	0.0	9.878400e-001	1.804649e-003	0.0	9.910500e-001	1.315055e-003	0.0	9.937800e-001	9.080844e-004	0.0	9.960200e-001	5.790766e-004	0.0	9.977600e-001	3.254914e-004	0.0	9.990000e-001	1.452882e-004	0.0	9.997500e-001	3.632951e-005	0.0	1.000000e+000	0.000000e+000	0.0	1.984229e+001	2.506660e+000	0.0	1.937166e+001	4.973800e+000	0.0	1.859553e+001	7.362490e+000	0.0	1.752613e+001	9.635070e+000	0.0	1.618034e+001	1.175571e+001	0.0	1.457937e+001	1.369094e+001	0.0	1.274848e+001	1.541027e+001	0.0	1.071654e+001	1.688656e+001	0.0	8.515590e+000	1.809654e+001	0.0	6.180340e+000	1.902113e+001	0.0	3.747630e+000	1.964575e+001	0.0	1.255810e+000	1.996053e+001	0.0	-1.255810e+000	1.996053e+001	0.0	-3.747630e+000	1.964574e+001	0.0	-6.180340e+000	1.902113e+001	0.0	-8.515590e+000	1.809654e+001	0.0	-1.071654e+001	1.688656e+001	0.0	-1.274848e+001	1.541026e+001	0.0	-1.457937e+001	1.369094e+001	0.0	-1.618034e+001	1.175570e+001	0.0	-1.752613e+001	9.635070e+000	0.0	-1.859553e+001	7.362490e+000	0.0	-1.937166e+001	4.973800e+000	0.0	-1.984229e+001	2.506660e+000	0.0	-2.000000e+001	0.000000e+000	0.0	-1.984229e+001	-2.506670e+000	0.0	-1.937166e+001	-4.973800e+000	0.0	-1.859553e+001	-7.362490e+000	0.0	-1.752613e+001	-9.635080e+000	0.0	-1.618034e+001	-1.175571e+001	0.0	-1.457937e+001	-1.369094e+001	0.0	-1.274848e+001	-1.541027e+001	0.0	-1.071653e+001	-1.688656e+001	0.0	-8.515580e+000	-1.809654e+001	0.0	-6.180340e+000	-1.902113e+001	0.0	-3.747620e+000	-1.964575e+001	0.0	-1.255810e+000	-1.996053e+001	0.0	1.255810e+000	-1.996053e+001	0.0	3.747630e+000	-1.964574e+001	0.0	6.180340e+000	-1.902113e+001	0.0	8.515590e+000	-1.809654e+001	0.0	1.071654e+001	-1.688656e+001	0.0	1.274848e+001	-1.541026e+001	0.0	1.457937e+001	-1.369094e+001	0.0	1.618034e+001	-1.175570e+001	0.0	1.752614e+001	-9.635070e+000	0.0	1.859553e+001	-7.362490e+000	0.0	1.937166e+001	-4.973790e+000	0.0	1.984229e+001	-2.506660e+000	0.0	2.000000e+001	0.000000e+000	0.0	6.065815e-002	-4.257176e-002	0.0	6.606649e-001	-5.801416e-002	0.0	4.259806e-001	7.518106e-002	0.0	6.901081e-001	5.045477e-002	0.0	3.792061e-001	-8.416774e-002	0.0	9.994611e-001	-7.342143e-004	0.0	9.985427e-001	-1.339054e-003	0.0	7.739616e-001	-3.929805e-002	0.0	6.902851e-001	-5.348582e-002	0.0	-1.411388e-003	6.749825e-003	0.0	7.470401e-001	-4.405090e-002	0.0	5.838126e-001	6.352479e-002	0.0	9.927995e-001	-3.779111e-003	0.0	9.899211e-001	-4.828056e-003	0.0	5.993793e-001	6.190088e-002	0.0	7.191167e-001	-4.880595e-002	0.0	-1.538652e-003	8.794669e-004	0.0	9.865589e-001	-6.052117e-003	0.0	9.827176e-001	-7.444707e-003	0.0	-1.301820e-003	-5.787520e-003	0.0	6.455994e-001	-6.020699e-002	0.0	8.243574e-001	-3.035795e-002	0.0	7.997589e-001	-3.469351e-002	0.0	3.487452e-001	7.741646e-002	0.0	8.476395e-001	-2.647697e-002	0.0	2.472766e-001	7.502124e-002	0.0	8.695543e-001	-2.321385e-002	0.0	9.955390e-003	2.222069e-002	0.0	8.900176e-001	-2.073800e-002	0.0	7.684904e-002	-4.785461e-002	0.0	9.089845e-001	-1.908988e-002	0.0	-1.867282e-003	-2.859352e-003	0.0	9.421478e-001	-1.690240e-002	0.0	9.263927e-001	-1.801546e-002	0.0	1.809555e-002	-2.422242e-002	0.0	4.259649e-001	-8.255901e-002	0.0	8.587757e-001	-2.475375e-002	0.0	9.561441e-001	-1.505602e-002	0.0	9.783843e-001	-9.002314e-003	0.0	9.682512e-001	-1.224738e-002	0.0	1.578339e-001	-6.743320e-002	0.0	8.996934e-001	-1.981800e-002	0.0	7.606364e-001	-4.166585e-002	0.0	9.971202e-001	-2.098195e-003	0.0	5.995660e-001	-6.644345e-002	0.0	4.417094e-001	-8.170374e-002	0.0	5.367864e-001	-7.377258e-002	0.0	4.733579e-001	-7.955953e-002	0.0	5.050873e-001	-7.689385e-002	0.0	4.892116e-001	-7.828745e-002	0.0	1.245855e-001	-6.054496e-002	0.0	2.795113e-002	-2.942226e-002	0.0	3.947010e-001	-8.379790e-002	0.0	4.622131e-002	-3.728
[...]
POINT_DATA 5233

SCALARS Density float 1
LOOKUP_TABLE default
1.174334e+000	1.157619e+000	1.149183e+000	1.143926e+000	1.139576e+000	1.133792e+000	1.123223e+000	1.105327e+000	1.078021e+000	1.041269e+000	9.945951e-001	9.457077e-001	9.179546e-001	9.217272e-001	9.484183e-001	9.847277e-001	1.020283e+000	1.048393e+000	1.067824e+000	1.079711e+000	1.085499e+000	1.086679e+000	1.084509e+000	1.080007e+000	1.073915e+000	1.066787e+000	1.059011e+000	1.050812e+000	1.042391e+000	1.033867e+000	1.025358e+000	1.016988e+000	1.008836e+000	1.001046e+000	9.937572e-001	9.870447e-001	9.810554e-001	9.760084e-001	9.723271e-001	9.694863e-001	9.660209e-001	9.657629e-001	9.781512e-001	9.830500e-001	8.945382e-001	7.116123e-001	6.333161e-001	6.406811e-001	6.511621e-001	6.564722e-001	6.590837e-001	6.634575e-001	6.693735e-001	6.758159e-001	6.825158e-001	6.898033e-001	6.980159e-001	7.070954e-001	7.168869e-001	7.271863e-001	7.379562e-001	7.491118e-001	7.605845e-001	7.723327e-001	7.842805e-001	7.964273e-001	8.087914e-001	8.213639e-001	8.340615e-001	8.468262e-001	8.595948e-001	8.723802e-001	8.852174e-001	8.981702e-001	9.112312e-001	9.243133e-001	9.373641e-001	9.503866e-001	9.633777e-001	9.762812e-001	9.891253e-001	1.001879e+000	1.014553e+000	1.027159e+000	1.039736e+000	1.052367e+000	1.065144e+000	1.078250e+000	1.091983e+000	1.106643e+000	1.122818e+000	1.141363e+000	1.163222e+000	1.189953e+000	1.222766e+000	1.261377e+000	1.301072e+000	1.340326e+000	1.350928e+000	1.344151e+000	1.339441e+000	1.309194e+000	1.242190e+000	1.176772e+000	1.110332e+000	1.049284e+000	9.977247e-001	9.563092e-001	9.238577e-001	8.989086e-001	8.797376e-001	8.648878e-001	8.534365e-001	8.444047e-001	8.371093e-001	8.310276e-001	8.255413e-001	8.201685e-001	8.146982e-001	8.090142e-001	8.031136e-001	7.968947e-001	7.901303e-001	7.826598e-001	7.745823e-001	7.661877e-001	7.576876e-001	7.489188e-001	7.397165e-001	7.301067e-001	7.204060e-001	7.108418e-001	7.015602e-001	6.925442e-001	6.838263e-001	6.753812e-001	6.672338e-001	6.594558e-001	6.520190e-001	6.450433e-001	6.386610e-001	6.330851e-001	6.283465e-001	6.241935e-001	6.203361e-001	6.167004e-001	6.133202e-001	6.103282e-001	6.076541e-001	6.053907e-001	6.032431e-001	6.009605e-001	5.983637e-001	5.959960e-001	5.948955e-001	5.917692e-001	5.864800e-001	5.838088e-001	6.791589e-001	9.044804e-001	1.000526e+000	9.974420e-001	9.930426e-001	9.992922e-001	1.006117e+000	1.012495e+000	1.019540e+000	1.026734e+000	1.033437e+000	1.039330e+000	1.043971e+000	1.047007e+000	1.048093e+000	1.046971e+000	1.043543e+000	1.037857e+000	1.030254e+000	1.021419e+000	1.012499e+000	1.004839e+000	9.998944e-001	9.988576e-001	1.002308e+000	1.009887e+000	1.020559e+000	1.032913e+000	1.045630e+000	1.057770e+000	1.068801e+000	1.078490e+000	1.086882e+000	1.094265e+000	1.101015e+000	1.107694e+000	1.114639e+000	1.122778e+000	1.132339e+000	1.144644e+000	1.159630e+000	1.151550e+000	9.986394e-001	9.996837e-001	9.998023e-001	9.996886e-001	9.996261e-001	9.995427e-001	9.994415e-001	9.993129e-001	9.991712e-001	9.990800e-001	9.990425e-001	9.991253e-001	9.992979e-001	9.995960e-001	9.998391e-001	1.000029e+000	1.000132e+000	1.000193e+000	1.000227e+000	1.000241e+000	1.000246e+000	1.000248e+000	1.000248e+000	1.000253e+000	1.000257e+000	1.000265e+000	1.000282e+000	1.000304e+000	1.000336e+000	1.000382e+000	1.000433e+000	1.000514e+000	1.000590e+000	1.000715e+000	1.000823e+000	1.000945e+000	1.001063e+000	1.001092e+000	1.001086e+000	1.000992e+000	1.000895e+000	1.000761e+000	1.000635e+000	1.000511e+000	1.000402e+000	1.000256e+000	1.000139e+000	1.000191e+000	9.991811e-001	9.978827e-001	1.028744e+000	9.742465e-001	6.231823e-001	9.946010e-001	7.116338e-001	1.158371e+000	1.150692e+000	1.022474e+000	9.816553e-001	1.287632e+000	1.007167e+000	5.987912e-001	1.129844e+000	1.120980e+000	5.924054e-001	9.932663e-001	1.340136e+000	1.107799e+000	1.088621e+000	1.324674e+000	9.712411e-001	1.053619e+000	1.038274e+000	6.489480e-001	1.067247e+000	7.062123e-001	1.076997e+000	1.022625e+000	1.078803e+000	1.003033e+000	1.066294e+000	1.343922e+000	9.787003e-001	1.032423e+000	1.130249e+000	6.871482e-001	1.072800e+000	9.449177e-001	1.062770e+000	9.906590e-001	9.000403e-001	1.074821e+000	1.014705e+000	1.142523e+000	9.880556e-001	6.802044e-001	6.388224e-001	6.675186e-001	6.601960e-001	6.634750e-001	9.387096e-001	1.096918e+000	7.026346e-001	1.054807e+000	6.945385e-001	7.531876e-001	7.315169e-001	1.082204e+000	7.761223e-001	1.006923e+000	9.128655e-001	8.621144e-001	9.902066e-001	9.644674e-001	8.034576e-001	8.873325e-001	9.716924e-001	1.079238e+000	1.112769e+000	1.136450e+000	1.199244e+000	9.486910e-001	1.052338e+000	9.547976e-001	1.029933e+000	1.237019e+000	1.060742e+000	8.120433e-001	6.460068e-001	9.999648e-001	1.030369e+000	9.516071e-001	8.369038e-001	9.805984e-001	9.773357e-001	1.041692e+000	1.229672e+000	1.149977e+000	7.212906e-001	8.747156e-001	1.184621e+000	8.243939e-001	9.773521e-001	7.645325e-001	7.998812e-001	6.734430e-001	9.870879e-001	1.328052e+000	1.296990e+000	6.036047e-001	1.343426e+000	9.004878e-001	8.501883e-001	8.699142e-001	8.030409e-001	6.273144e-001	1.126441e+000	6.058607e-001	6.127802e-001	1.073346e+000	1.053625e+000	1.019967e+000	6.102067e-001	6.193475e-001	6.367740e-001	1.008632e+000	1.008886e+000	8.292906e-001	1.081801e+000	1.042740e+000	1.021833e+000	8.163887e-001	8.426370e-001	6.799352e-001	6.972264e-001	7.623967e-001	6.636961e-001	6.158813e-001	6.318057e-001	7.794789e-001	7.957122e-001	5.988359e-001	7.441490e-001	7.249032e-001	1.004848e+000	5.995444e-001	1.017272e+000	1.005689e+000	1.039830e+000	1.029773e+000	1.042827e+000	1.044819e+000	1.013551e+000	1.033596e+000	1.031847e+000	1.007018e+000	1.063940e+000	1.039020e+000	1.026985e+000	1.043113e+000	1.044763e+000	1.023660e+000	1.035293e+000	9.991214e-001	1.011234e+000	8.023952e-001	1.003113e+000	6.012151e-001	5.850085e-001	7.345487e-001	7.154647e-001	7.710209e-001	7.534959e-001	8.590483e-001	7.878093e-001	9.819929e-001	8.834810e-001	8.494981e-001	1.124116e+000	9.572845e-001	1.046063e+000	7.421714e-001	6.505936e-001	1.181620e+000	9.218515e-001	1.070280e+000	8.228448e-001	8.358013e-001	6.884540e-001	8.098531e-001	1.089409e+000	1.096418e+000	6.716690e-001	1.103231e+000	1.110172e+000	6.561270e-001	6.424651e-001	1.013767e+000	1.170383e+000	1.137154e+000	1.147645e+000	9.679694e-001	1.068259e+000	1.117794e+000	6.079008e-001	1.263420e+000	1.172785e+000	1.015870e+000	9.257935e-001	7.879217e-001	8.465528e-001	1.264082e+000	1.304607e+000	7.925508e-001	9.874258e-001	1.053669e+000	1.197160e+000	6.036581e-001	9.825083e-001	1.027188e+000	1.107610e+000	7.584286e-001	1.065809e+000	1.054924e+000	9.913172e-001	1.305219e+000	8.529391e-001	1.151711e+000	9.762394e-001	9.150799e-001	9.931157e-001	9.763813e-001	6.856369e-001	1.004117e+000	7.175993e-001	1.069426e+000	1.034395e+000	1.078014e+000	9.674183e-001	1.008939e+000	1.041375e+000	8.172472e-001	9.973849e-001	7.767915e-001	1.030848e+000	1.098224e+000	6.614707e-001	6.113878e-001	1.041161e+000	1.025729e+000	1.104805e+000	1.050526e+000	1.084397e+000	7.213475e-001	6.692551e-001	7.306939e-001	8.244154e-001	9.788700e-001	8.653559e-001	1.035984e+000	7.935762e-001	8.739690e-001	1.068627e+000	1.111790e+000	1.020806e+000	9.025624e-001	1.180310e+000	1.127819e+000	1.119327e+000	1.124037e+000	1.220428e+000	1.223558e+000	1.337382e+000	1.335934e+000	1.132452e+000	1.186342e+000	1.029856e+000	1.141171e+000	1.127011e+000	6.315862e-001	6.441286e-001	1.092836e+000	1.071881e+000	6.010333e-001	1.118619e+000	1.327595e+000	6.931288e-001	6.365552e-001	1.060830e+000	6.943297e-001	1.069671e+000	1.072000e+000	1.016942e+000	1.063480e+000	1.039551e+000	9.828649e-001	1.099094e+000	9.723978e-001	9.954862e-001	1.073487e+000	9.404534e-001	1.012779e+000	1.019917e+000	1.134142e+000	6.790021e-001	6.737271e-001	6.683747e-001	1.115143e+000	7.089198e-001	7.008125e-001	7.475912e-001	1.069941e+000	1.021527e+000	1.001299e+000	9.277171e-001	9.785688e-001	7.133544e-001	9.778438e-001	1.022916e+000	1.049978e+000	9.992299e-001	1.005882e+000	9.658878e-001	9.531553e-001	9.291405e-001	9.905908e-001	1.056277e+000	1.042976e+000	1.173059e+000	7.371262e-001	7.271147e-001	8.901693e-001	8.777774e-001	8.405748e-001	8.283394e-001	7.809619e-001	7.695485e-001	8.162418e-001	1.329417e+000	1.252199e+000	8.861609e-001	1.091481e+000	6.089830e-001	6.137403e-001	6.165571e-001	6.195637e-001	1.076844e+000	1.059817e+000	1.015488e+000	6.231180e-001	6.270911e-001	6.420513e-001	1.014962e+000	1.032248e+000	8.546518e-001	8.636490e-001	7.121844e-001	7.031300e-001	7.852656e-001	8.018718e-001	8.097992e-001	1.035856e+000	1.015402e+000	1.010467e+000	1.031595e+000	1.042097e+000	1.016953e+000	1.035480e+000	1.039079e+000	1.041367e+000	1.039252e+000	1.026493e+000	1.020994e+000	1.006215e+000	1.000032e+000	9.536382e-001	6.752523e-001	6.053053e-001	6.068703e-001	5.937297e-001	5.863286e-001	7.400350e-001	7.495043e-001	7.588660e-001	7.680567e-001	9.991061e-001	9.010195e-001	9.192222e-001	1.041546e+000	1.048461e+000	6.618647e-001	6.448185e-001	1.172937e+000	9.411293e-001	8.315793e-001	8.389083e-001	6.773015e-001	6.856865e-001	6.479375e-001	6.543763e-001	1.024531e+000	1.018743e+000	9.715932e-001	9.739099e-001	1.084127e+000	1.280855e+000	8.043290e-001	1.307108e+000	7.246629e-001	7.979697e-001	1.031061e+000	6.468230e-001	1.043638e+000	1.099744e+000	1.093430e+000	1.057252e+000	1.166465e+000	1.106571e+000	1.137287e+000	1.150342e+000	1.132053e+000	1.169988e+000	1.133408e+000	1.309686e+000	9.931378e-001	1.031008e+000	1.108435e+000	6.107782e-001	1.149919e+000	1.217003e+000	9.930925e-001	1.265930e+000	9.987235e-001	1.151631e+000	1.065457e+000	1.193564e+000	7.644411e-001	1.063189e+000	9.879749e-001	1.118040e+000	1.171816e+000	1.080072e+000	6.154809e-001	1.041234e+000	1.006617e+000	1.112765e+000	6.182839e-001	7.097235e-001	6.753081e-001	7.922218e-001	8.665706e-001	1.144404e+000	1.284955e+000	1.242168e+000	1.013512e+000	1.281471e+000	1.004895e+000	1.005752e+000	1.329283e+000	9.180877e-001	6.919964e-001	1.116435e+000	1.084582e+000	1.039312e+000	1.032373e+000	1.003213e+000	1.086962e+000	1.049131e+000	1.026056e+000	1.029629e+000	6.835383e-001	7.007411e-001	7.372934e-001	8.331272e-001	9.809519e-001	9.837743e-001	8.693294e-001	1.047432e+000	8.004123e-001	1.072890e+000	1.119709e+000	1.124730e+000	1.207104e+000	1.241352e+000	1.318636e+000	1.100486e+000	1.160713e+000	1.153968e+000	1.023704e+000	1.096996e+000	6.065602e-001	6.992348e-001	6.416671e-001	1.055020e+000	1.059573e+000	1.066047e+000	1.064553e+000	1.031356e+000	1.018529e+000	1.060513e+000	1.053647e+000	9.942523e-001	9.941141e-001	1.082623e+000	1.017755e+000	1.024377e+000	1.124916e+000	6.854648e-001	6.798915e-001	7.160603e-001	7.075805e-001	1.085663e+000	1.016695e+000	1.003180e+000	9.429010e-001	9.304200e-001	6.750324e-001	8.405910e-001	1.044879e+000	1.064899e+000	1.004827e+000	1.011149e+000	9.805436e-001	9.679095e-001	9.554378e-001	9.792862e-001	9.854836e-001	1.071595e+000	1.057843e+000	1.044375e+000	7.538450e-001	7.435375e-001	7.337002e-001	9.059583e-001	8.937766e-001	8.815594e-001	8.571550e-001	8.450660e-001	7.865432e-001	7.753852e-001	8.330755e-001	9.016504e-001	6.208552e-001	6.240668e-001	1.065227e+000	6.275982e-001	6.316818e-001	6.362961e-001	6.475832e-001	1.021558e+000	8.767796e-001	8.883741e-001	7.187376e-001	7.280441e-001	8.085646e-001	8.171058e-001	8.254027e-001	1.014775e+000	1.021443e+000	1.023161e+000	1.033144e+000	1.036220e+000	1.038344e+000	1.039287e+000	1.037960e+000	1.035648e+000	1.028313e+000	1.023834e+000	1.019057e+000	1.010810e+000	1.006252e+000	9.997101e-001	8.472169e-001	6.116052e-001	6.136330e-001	6.202701e-001	5.852366e-001	5.997093e-001	7.466332e-001	7.557903e-001	7.651149e-001	7.743889e-001	7.835890e-001	9.172092e-001	9.360206e-001	1.037499e+000	1.043827e+000	1.049627e+000	6.711731e-001	6.601496e-001	9.583135e-001	9.838445e-001	8.407860e-001	8.488581e-001	8.573721e-001	6.920578e-001	6.541289e-001	6.608253e-001	6.677972e-001	1.034023e+000	1.028026e+000	1.023742e+000	9.752909e-001	9.754775e-001	9.784119e-001	8.212371e-001	8.095182e-001	1.287111e+000	9.951111e-001	1.113113e+000	1.082761e+000	6.757922e-001	1.287596e+000	1.137956e+000	1.036776e+000	1.026910e+000	1.100711e+000	1.100880e+000	6.269893e-001	1.266743e+000	1.055867e+000	1.207918e+000	1.055640e+000	1.106955e+000	1.223373e+000	9.628189e-001	1.193004e+000	1.153147e+000	1.163244e+000	1.033936e+000	9.221541e-001	1.132748e+000	7.336269e-001	1.007658e+000	7.074845e-001	8.047991e-001	1.088973e+000	6.176571e-001	1.048651e+000	1.042070e+000	1.028536e+000	8.087580e-001	7.271061e-001	1.099586e+000	8.893834e-001	1.059139e+000	1.126491e+000	1.095007e+000	1.123707e+000	1.043772e+000	1.149641e+000	9.926869e-001	1.229048e+000	9.981277e-001	1.003626e+000	1.168206e+000	1.108889e+000	1.187771e+000	1.037162e+000	6.229273e-001	7.000397e-001	1.258271e+000	1.088576e+000	1.014271e+000	1.029557e+000	6.917543e-001	7.090380e-001	7.177888e-001	9.833881e-001	9.878545e-001	1.076269e+000	1.122614e+000	1.158334e+000	1.249903e+000	1.299734e+000	1.116237e+000	1.028412e+000	1.088238e+000	6.124406e-001	1.053624e+000	1.057100e+000	1.060304e+000	1.059315e+000	1.032779e+000	1.020147e+000	1.056834e+000	1.052117e+000	1.045347e+000	1.010295e+000	1.016299e+000	1.021469e+000	1.027351e+000	1.116928e+000	7.003143e-001	6.936870e-001	7.244409e-001	7.153164e-001	1.017632e+000	1.011289e+000	9.459900e-001	9.336152e-001	7.625998e-001	1.059665e+000	1.074846e+000	1.009225e+000	1.015930e+000	9.827836e-001	9.705228e-001	9.583105e-001	9.293603e-001	9.864832e-001	1.086677e+000	1.072545e+000	1.058696e+000	1.045507e+000	7.722191e-001	7.617418e-001	7.519534e-001	7.424341e-001	9.102725e-001	8.983636e-001	8.863250e-001	8.744379e-001	8.625906e-001	7.827553e-001	7.937604e-001	8.508287e-001	6.302306e-001	1.069608e+000	1.062665e+000	6.341201e-001	6.381548e-001	6.431308e-001	6.483829e-001	6.548427e-001	9.022076e-001	9.168056e-001	7.361097e-001	7.456459e-001	8.168339e-001	8.249613e-001	8.338221e-001	8.425299e-001	1.026840e+000	1.026687e+000	1.027719e+000	1.031774e+000	1.033859e+000	1.035611e+000	1.036145e+000	1.036235e+000	1.033907e+000	1.032362e+000	1.025406e+000	1.020866e+000	1.016821e+000	1.011763e+000	1.007710e+000	1.006809e+000	1.009230e+000	6.215693e-001	6.187222e-001	7.270136e-001	6.192339e-001	6.011661e-001	5.996723e-001	7.546790e-001	7.639146e-001	7.726034e-001	7.816410e-001	7.906584e-001	7.997973e-001	9.328091e-001	9.512137e-001	1.038831e+000	1.044918e+000	1.049528e+000	6.827338e-001	6.677542e-001	6.663184e-001	9.733674e-001	9.981819e-001	1.025215e+000	8.507735e-001	8.591081e-001	8.684355e-001	8.784442e-001	6.614541e-001	6.689697e-001	6.762869e-001	6.836145e-001	1.028522e+000	1.036257e+000	1.031677e+000	9.868989e-001	9.805931e-001	9.775271e-001	9.799832e-001	8.391493e-001	8.275394e-001	8.161602e-001	1.163720e+000	1.109329e+000	1.045733e+000	1.148242e+000	1.181407e+000	1.004239e+000	9.976124e-001	1.199115e+000	1.079087e+000	1.235245e+000	1.115057e+000	9.279028e-001	8.268495e-001	1.091629e+000	1.181147e+000	1.261767e+000	1.308560e+000	1.309520e+000	1.299282e+000	1.250287e+000	1.119155e+000	7.099048e-001	1.057825e+000	1.101409e+000	1.028140e+000	1.031464e+000	7.423395e-001	1.101412e+000	1.031868e+000	1.043523e+000	6.259254e-001	6.314794e-001	9.219213e-001	1.023107e+000	6.371619e-001	7.046139e-001	6.996052e-001	1.096033e+000	1.009816e+000	1.139425e+000	1.084861e+000	1.303456e+000	1.158586e+000	1.150351e+000	1.033532e+000	1.100908e+000	1.266888e+000	1.062538e+000	1.217246e+000	1.054705e+000	1.207702e+000	1.148801e+000	1.153107e+000	1.146998e+000	8.004635e-001	8.132131e-001	1.090441e+000	6.197964e-001	1.048845e+000	1.092141e+000	9.936352e-001	1.236529e+000	7.167676e-001	7.276626e-001	7.348828e-001	9.826100e-001	1.121026e+000	1.151296e+000	1.278385e+000	1.131261e+000	1.051516e+000	1.053989e+000	1.054178e+000	1.055140e+000	1.022048e+000	1.034491e+000	1.052798e+000	1.050607e+000	1.045369e+000	1.039864e+000	1.026798e+000	1.034844e+000	1.021395e+000	1.109205e+000	7.153354e-001	7.099332e-001	7.314112e-001	7.249027e-001	1.023458e+000	1.022949e+000	9.489632e-001	9.371860e-001	1.070133e+000	1.081759e+000	1.013197e+000	9.851448e-001	9.730103e-001	9.631461e-001	8.968477e-001	1.087082e+000	1.073306e+000	1.059662e+000	1.047007e+000	7.917910e-001	7.795538e-001	7.714661e-001	7.598164e-001	7.527754e-001	9.147836e-001	9.045814e-001	8.909917e-001	8.810742e-001	8.678218e-001	1.073098e+000	1.067044e+000	1.060874e+000	6.403345e-001	6.461502e-001	6.498573e-001	6.569970e-001	6.616161e-001	9.159451e-001	9.313388e-001	7.461141e-001	7.535301e-001	8.324593e-001	8.424068e-001	8.522665e-001	1.030927e+000	1.029897e+000	1.030623e+000	1.031265e+000	1.032365e+000	1.033531e+000	1.033753e+000	1.033948e+000	1.032052e+000	1.028899e+000	1.013818e+000	1.008145e+000	1.027094e+000	6.365886e-001	6.099378e-001	7.647670e-001	7.718536e-001	7.825345e-001	7.890206e-001	7.993364e-001	8.084441e-001	8.175886e-001	9.480416e-001	9.659289e-001	1.039736e+000	1.044963e+000	1.047558e+000	6.964143e-001	6.809480e-001	9.866001e-001	1.010718e+000	1.035590e+000	8.615523e-001	8.705695e-001	8.801865e-001	8.917015e-001	9.034801e-001	6.701431e-001	6.758933e-001	6.852612e-001	6.936309e-001	1.038893e+000	1.035107e+000	9.971168e-001	9.824553e-001	8.580727e-001	8.448263e-001	8.353477e-001	8.223857e-001	1.143636e+000	1.132267e+000	1.189918e+000	1.275026e+000	1.157077e+000	1.067508e+000	1.091593e+000	1.217599e+000	1.059454e+000	1.121649e+000	1.086478e+000	1.259948e+000	1.113504e+000	1.174070e+000	7.139682e-001	1.148104e+000	1.118755e+000	1.193246e+000	1.158340e+000	1.057856e+000	6.991635e-001	1.086410e+000	8.142732e-001	1.032311e+000	1.036100e+000	9.921701e-001	9.996660e-001	9.264389e-001	1.234210e+000	7.446851e-001	1.024571e+000	1.012412e+000	8.469416e-001	1.075680e+000	1.035374e+000	1.239984e+000	1.093040e+000	1.048757e+000	1.143070e+000	1.080984e+000	1.305944e+000	1.248025e+000	1.095047e+000	1.008818e+000	6.431609e-001	6.504798e-001	1.096658e+000	1.148380e+000	1.111886e+000	1.283020e+000	1.153211e+000	1.100476e+000	1.220784e+000	1.205621e+000	6.310843e-001	1.128124e+000	1.054422e+000	1.049235e+000	6.364110e-001	7.310486e-001	7.493745e-001	9.995236e-001	1.144575e+000	1.169862e+000	1.143652e+000	1.049227e+000	1.049771e+000	1.036120e+000	1.046895e+000	1.041284e+000	1.040859e+000	1.102657e+000	7.287578e-001	1.032062e+000	1.035164e+000	9.471232e-001	1.077148e+000	1.016739e+000	1.024960e+000	9.828694e-001	9.658251e-001	8.061354e-001	1.087166e+000	1.072947e+000	1.060076e+000	1.050192e+000	7.937802e-001	7.746858e-001	7.609155e-001	9.032110e-001	8.802425e-001	1.070322e+000	1.064950e+000	6.611108e-001	6.740132e-001	9.446448e-001	7.680758e-001	8.616913e-001	1.027096e+000	1.032320e+000	1.031579e+000	1.031765e+000	1.031072e+000	1.029783e+000	1.023169e+000	1.015512e+000	1.005493e+000	1.015757e+000	1.008448e+000	7.791685e-001	6.220204e-001	6.131063e-001	7.863185e-001	8.031628e-001	8.182926e-001	8.252081e-001	8.360734e-001	9.625023e-001	9.800158e-001	1.033640e+000	1.041114e+000	1.045735e+000	7.155530e-001	6.964959e-001	9.988281e-001	1.020965e+000	1.044392e+000	1.067893e+000	8.728122e-001	8.825482e-001	8.924986e-001	9.042498e-001	9.189668e-001	9.282866e-001	6.881044e-001	7.024067e-001	1.044461e+000	1.040534e+000	9.662678e-001	9.803867e-001	9.872692e-001	8.577310e-001	8.357051e-001	1.101254e+000	1.143826e+000	1.139584e+000	1.117611e+000	1.067698e+000	1.092338e+000	1.145215e+000	1.116778e+000	1.194398e+000	1.152808e+000	1.127931e+000	1.108778e+000	1.138394e+000	1.220317e+000	1.242237e+000	1.067892e+000	1.012588e+000	7.221670e-001	1.107823e+000	1.042673e+000	1.124861e+000	9.498598e-001	1.116429e+000	1.180763e+000	7.668484e-001	1.038310e+000	9.846796e-001	7.625718e-001	1.066292e+000	1.074103e+000	1.111476e+000	1.099643e+000	1.143228e+000	1.082463e+000	1.087180e+000	1.058453e+000	7.546551e-001	6.273576e-001	9.942838e-001	1.037740e+000	1.128653e+000	1.133448e+000	1.285461e+000	1.058621e+000	1.063014e+000	1.152664e+000	1.081981e+000	1.200956e+000	1.166516e+000	7.085418e-001	1.230843e+000	1.028309e+000	1.014219e+000	1.077647e+000	1.254172e+000	1.051608e+000	1.089494e+000	1.004770e+000	1.262833e+000	1.152755e+000	1.050615e+000	1.219258e+000	1.207258e+000	6.