# vtk DataFile Version 3.0
vtk output
ASCII
DATASET UNSTRUCTURED_GRID
POINTS 5233 float
9.997500e-001	-3.633234e-005	0.0	9.990000e-001	-1.454668e-004	0.0	9.977600e-001	-3.274484e-004	0.0	9.960200e-001	-5.896216e-004	0.0	9.937800e-001	-9.460619e-004	0.0	9.910500e-001	-1.419523e-003	0.0	9.878400e-001	-2.040541e-003	0.0	9.841300e-001	-2.846159e-003	0.0	9.799500e-001	-3.850690e-003	0.0	9.752800e-001	-5.054311e-003	0.0	9.701500e-001	-6.412826e-003	0.0	9.645400e-001	-7.867343e-003	0.0	9.584700e-001	-9.335436e-003	0.0	9.519400e-001	-1.074527e-002	0.0	9.449600e-001	-1.204216e-002	0.0	9.375400e-001	-1.319570e-002	0.0	9.296900e-001	-1.419518e-002	0.0	9.214000e-001	-1.504274e-002	0.0	9.127000e-001	-1.574002e-002	0.0	9.035800e-001	-1.629384e-002	0.0	8.940600e-001	-1.671129e-002	0.0	8.841500e-001	-1.700619e-002	0.0	8.738500e-001	-1.720060e-002	0.0	8.631800e-001	-1.732431e-002	0.0	8.521600e-001	-1.741361e-002	0.0	8.407700e-001	-1.750788e-002	0.0	8.290500e-001	-1.764516e-002	0.0	8.170100e-001	-1.785956e-002	0.0	8.046400e-001	-1.817950e-002	0.0	7.919700e-001	-1.862531e-002	0.0	7.790100e-001	-1.921014e-002	0.0	7.657800e-001	-1.993960e-002	0.0	7.522800e-001	-2.081432e-002	0.0	7.385200e-001	-2.182961e-002	0.0	7.245300e-001	-2.297524e-002	0.0	7.103200e-001	-2.423948e-002	0.0	6.958900e-001	-2.560987e-002	0.0	6.812700e-001	-2.707009e-002	0.0	6.664700e-001	-2.860531e-002	0.0	6.515000e-001	-3.020090e-002	0.0	6.363800e-001	-3.184172e-002	0.0	6.211300e-001	-3.351341e-002	0.0	6.057600e-001	-3.520363e-002	0.0	5.902800e-001	-3.690103e-002	0.0	5.747100e-001	-3.859415e-002	0.0	5.590600e-001	-4.027348e-002	0.0	5.433600e-001	-4.192822e-002	0.0	5.276100e-001	-4.355150e-002	0.0	5.118400e-001	-4.513396e-002	0.0	4.960500e-001	-4.666988e-002	0.0	4.802700e-001	-4.815112e-002	0.0	4.645100e-001	-4.957200e-002	0.0	4.487800e-001	-5.092728e-002	0.0	4.331100e-001	-5.221049e-002	0.0	4.175000e-001	-5.341814e-002	0.0	4.019700e-001	-5.454550e-002	0.0	3.865400e-001	-5.558838e-002	0.0	3.712300e-001	-5.654305e-002	0.0	3.560400e-001	-5.740738e-002	0.0	3.409900e-001	-5.817819e-002	0.0	3.261100e-001	-5.885229e-002	0.0	3.114000e-001	-5.942810e-002	0.0	2.968700e-001	-5.990351e-002	0.0	2.825500e-001	-6.027591e-002	0.0	2.684500e-001	-6.054343e-002	0.0	2.545700e-001	-6.070419e-002	0.0	2.409400e-001	-6.075579e-002	0.0	2.275700e-001	-6.069615e-002	0.0	2.144700e-001	-6.052303e-002	0.0	2.016600e-001	-6.023431e-002	0.0	1.891400e-001	-5.982742e-002	0.0	1.769300e-001	-5.930026e-002	0.0	1.650400e-001	-5.865059e-002	0.0	1.534900e-001	-5.787694e-002	0.0	1.422900e-001	-5.697768e-002	0.0	1.314400e-001	-5.595042e-002	0.0	1.209500e-001	-5.479362e-002	0.0	1.108500e-001	-5.350885e-002	0.0	1.011300e-001	-5.209337e-002	0.0	9.181000e-002	-5.054876e-002	0.0	8.290000e-002	-4.887607e-002	0.0	7.440000e-002	-4.707484e-002	0.0	6.633000e-002	-4.514943e-002	0.0	5.869000e-002	-4.310054e-002	0.0	5.149000e-002	-4.093184e-002	0.0	4.474000e-002	-3.864804e-002	0.0	3.844000e-002	-3.625116e-002	0.0	3.260000e-002	-3.374734e-002	0.0	2.723000e-002	-3.114431e-002	0.0	2.232000e-002	-2.844022e-002	0.0	1.790000e-002	-2.565628e-002	0.0	1.395000e-002	-2.278530e-002	0.0	1.049000e-002	-1.984708e-002	0.0	7.520000e-003	-1.685034e-002	0.0	5.040000e-003	-1.380440e-002	0.0	3.050000e-003	-1.071872e-002	0.0	1.560000e-003	-7.625168e-003	0.0	5.600000e-004	-4.519641e-003	0.0	6.000000e-005	-1.445680e-003	0.0	0.000000e+000	0.000000e+000	0.0	6.000000e-005	1.348641e-003	0.0	5.600000e-004	4.077270e-003	0.0	1.560000e-003	6.771553e-003	0.0	3.050000e-003	9.442445e-003	0.0	5.040000e-003	1.211940e-002	0.0	7.520000e-003	1.479210e-002	0.0	1.049000e-002	1.746485e-002	0.0	1.395000e-002	2.013913e-002	0.0	1.790000e-002	2.281484e-002	0.0	2.232000e-002	2.547944e-002	0.0	2.723000e-002	2.814457e-002	0.0	3.260000e-002	3.079292e-002	0.0	3.844000e-002	3.342865e-002	0.0	4.474000e-002	3.604514e-002	0.0	5.149000e-002	3.863601e-002	0.0	5.869000e-002	4.119837e-002	0.0	6.633000e-002	4.372504e-002	0.0	7.440000e-002	4.620880e-002	0.0	8.290000e-002	4.864499e-002	0.0	9.181000e-002	5.102284e-002	0.0	1.011300e-001	5.333690e-002	0.0	1.108500e-001	5.557859e-002	0.0	1.209500e-001	5.773709e-002	0.0	1.314400e-001	5.980778e-002	0.0	1.422900e-001	6.177770e-002	0.0	1.534900e-001	6.363830e-002	0.0	1.650400e-001	6.538249e-002	0.0	1.769300e-001	6.700143e-002	0.0	1.891400e-001	6.848538e-002	0.0	2.016600e-001	6.982650e-002	0.0	2.144700e-001	7.101653e-002	0.0	2.275700e-001	7.204974e-002	0.0	2.409400e-001	7.291930e-002	0.0	2.545700e-001	7.362010e-002	0.0	2.684500e-001	7.414784e-002	0.0	2.825500e-001	7.449872e-002	0.0	2.968700e-001	7.467106e-002	0.0	3.114000e-001	7.466374e-002	0.0	3.261100e-001	7.447700e-002	0.0	3.409900e-001	7.411244e-002	0.0	3.560400e-001	7.357226e-002	0.0	3.712300e-001	7.286074e-002	0.0	3.865400e-001	7.198341e-002	0.0	4.019700e-001	7.094563e-002	0.0	4.175000e-001	6.975489e-002	0.0	4.331100e-001	6.841988e-002	0.0	4.487800e-001	6.695046e-002	0.0	4.645100e-001	6.535541e-002	0.0	4.802700e-001	6.364735e-002	0.0	4.960500e-001	6.183780e-002	0.0	5.118400e-001	5.993899e-002	0.0	5.276100e-001	5.796645e-002	0.0	5.433600e-001	5.593284e-002	0.0	5.590600e-001	5.385535e-002	0.0	5.747100e-001	5.174797e-002	0.0	5.902800e-001	4.962921e-002	0.0	6.057600e-001	4.751524e-002	0.0	6.211300e-001	4.542363e-002	0.0	6.363800e-001	4.337022e-002	0.0	6.515000e-001	4.137014e-002	0.0	6.664700e-001	3.943854e-002	0.0	6.812700e-001	3.758868e-002	0.0	6.958900e-001	3.583014e-002	0.0	7.103200e-001	3.416969e-002	0.0	7.245300e-001	3.261306e-002	0.0	7.385200e-001	3.115907e-002	0.0	7.522800e-001	2.980424e-002	0.0	7.657800e-001	2.854354e-002	0.0	7.790100e-001	2.736672e-002	0.0	7.919700e-001	2.626015e-002	0.0	8.046400e-001	2.520981e-002	0.0	8.170100e-001	2.419927e-002	0.0	8.290500e-001	2.321289e-002	0.0	8.407700e-001	2.223153e-002	0.0	8.521600e-001	2.123820e-002	0.0	8.631800e-001	2.022013e-002	0.0	8.738500e-001	1.916167e-002	0.0	8.841500e-001	1.805444e-002	0.0	8.940600e-001	1.689524e-002	0.0	9.035800e-001	1.568435e-002	0.0	9.127000e-001	1.442907e-002	0.0	9.214000e-001	1.314365e-002	0.0	9.296900e-001	1.184204e-002	0.0	9.375400e-001	1.054671e-002	0.0	9.449600e-001	9.274427e-003	0.0	9.519400e-001	8.044637e-003	0.0	9.584700e-001	6.875705e-003	0.0	9.645400e-001	5.784354e-003	0.0	9.701500e-001	4.783104e-003	0.0	9.752800e-001	3.884396e-003	0.0	9.799500e-001	3.088947e-003	0.0	9.841300e-001	2.400943e-003	0.0	9.878400e-001	1.811787e-003	0.0	9.910500e-001	1.318355e-003	0.0	9.937800e-001	9.093231e-004	0.0	9.960200e-001	5.794281e-004	0.0	9.977600e-001	3.255575e-004	0.0	9.990000e-001	1.452942e-004	0.0	9.997500e-001	3.632960e-005	0.0	1.000000e+000	0.000000e+000	0.0	1.984229e+001	2.506660e+000	0.0	1.937166e+001	4.973800e+000	0.0	1.859553e+001	7.362490e+000	0.0	1.752613e+001	9.635070e+000	0.0	1.618034e+001	1.175571e+001	0.0	1.457937e+001	1.369094e+001	0.0	1.274848e+001	1.541027e+001	0.0	1.071654e+001	1.688656e+001	0.0	8.515590e+000	1.809654e+001	0.0	6.180340e+000	1.902113e+001	0.0	3.747630e+000	1.964575e+001	0.0	1.255810e+000	1.996053e+001	0.0	-1.255810e+000	1.996053e+001	0.0	-3.747630e+000	1.964574e+001	0.0	-6.180340e+000	1.902113e+001	0.0	-8.515590e+000	1.809654e+001	0.0	-1.071654e+001	1.688656e+001	0.0	-1.274848e+001	1.541026e+001	0.0	-1.457937e+001	1.369094e+001	0.0	-1.618034e+001	1.175570e+001	0.0	-1.752613e+001	9.635070e+000	0.0	-1.859553e+001	7.362490e+000	0.0	-1.937166e+001	4.973800e+000	0.0	-1.984229e+001	2.506660e+000	0.0	-2.000000e+001	0.000000e+000	0.0	-1.984229e+001	-2.506670e+000	0.0	-1.937166e+001	-4.973800e+000	0.0	-1.859553e+001	-7.362490e+000	0.0	-1.752613e+001	-9.635080e+000	0.0	-1.618034e+001	-1.175571e+001	0.0	-1.457937e+001	-1.369094e+001	0.0	-1.274848e+001	-1.541027e+001	0.0	-1.071653e+001	-1.688656e+001	0.0	-8.515580e+000	-1.809654e+001	0.0	-6.180340e+000	-1.902113e+001	0.0	-3.747620e+000	-1.964575e+001	0.0	-1.255810e+000	-1.996053e+001	0.0	1.255810e+000	-1.996053e+001	0.0	3.747630e+000	-1.964574e+001	0.0	6.180340e+000	-1.902113e+001	0.0	8.515590e+000	-1.809654e+001	0.0	1.071654e+001	-1.688656e+001	0.0	1.274848e+001	-1.541026e+001	0.0	1.457937e+001	-1.369094e+001	0.0	1.618034e+001	-1.175570e+001	0.0	1.752614e+001	-9.635070e+000	0.0	1.859553e+001	-7.362490e+000	0.0	1.937166e+001	-4.973790e+000	0.0	1.984229e+001	-2.506660e+000	0.0	2.000000e+001	0.000000e+000	0.0	6.057995e-002	-5.100771e-002	0.0	6.602191e-001	-4.337701e-002	0.0	4.262494e-001	8.320394e-002	0.0	6.900843e-001	5.041320e-002	0.0	3.796493e-001	-7.009270e-002	0.0	9.994591e-001	-7.363057e-004	0.0	9.985384e-001	-1.340225e-003	0.0	7.732666e-001	-3.220474e-002	0.0	6.897366e-001	-4.007755e-002	0.0	-1.569624e-003	6.373046e-003	0.0	7.463566e-001	-3.440918e-002	0.0	5.840851e-001	6.507637e-002	0.0	9.927830e-001	-3.735294e-003	0.0	9.898981e-001	-4.736919e-003	0.0	5.996183e-001	6.291090e-002	0.0	7.184854e-001	-3.705286e-002	0.0	-1.684898e-003	6.996193e-004	0.0	9.865296e-001	-5.891940e-003	0.0	9.826843e-001	-7.203916e-003	0.0	-1.639525e-003	-7.072124e-003	0.0	6.452084e-001	-4.509625e-002	0.0	8.238142e-001	-2.914838e-002	0.0	7.991089e-001	-3.048097e-002	0.0	3.488675e-001	8.737393e-002	0.0	8.472532e-001	-2.806864e-002	0.0	2.471624e-001	8.552838e-002	0.0	8.693599e-001	-2.700445e-002	0.0	9.766343e-003	2.208422e-002	0.0	8.900187e-001	-2.570733e-002	0.0	7.691648e-002	-5.566206e-002	0.0	9.091366e-001	-2.397874e-002	0.0	-2.057911e-003	-3.491669e-003	0.0	9.423280e-001	-1.888541e-002	0.0	9.266073e-001	-2.171095e-002	0.0	1.764260e-002	-3.100897e-002	0.0	4.262751e-001	-6.711753e-002	0.0	8.584825e-001	-2.754850e-002	0.0	9.562341e-001	-1.557962e-002	0.0	9.783537e-001	-8.695518e-003	0.0	9.682579e-001	-1.203730e-002	0.0	1.584255e-001	-6.882874e-002	0.0	8.997788e-001	-2.490636e-002	0.0	7.599409e-001	-3.324810e-002	0.0	9.971128e-001	-2.094651e-003	0.0	5.993421e-001	-5.036833e-002	0.0	4.419759e-001	-6.593801e-002	0.0	5.367779e-001	-5.722497e-002	0.0	4.735376e-001	-6.332376e-002	0.0	5.051770e-001	-6.040356e-002	0.0	4.893472e-001	-6.189901e-002	0.0	1.250077e-001	-6.492436e-002	0.0	2.756776e-002	-3.726751e-002	0.0	3.950996e-001	-6.919932e-002	0.0	4.600482e-002	-4.586
[...]
POINT_DATA 5233

SCALARS Density float 1
LOOKUP_TABLE default
1.181293e+000	1.160484e+000	1.151093e+000	1.144954e+000	1.140527e+000	1.136023e+000	1.129012e+000	1.117806e+000	1.100903e+000	1.077838e+000	1.049252e+000	1.016821e+000	9.830948e-001	9.519200e-001	9.271803e-001	9.110227e-001	9.035700e-001	9.035981e-001	9.095713e-001	9.200203e-001	9.336470e-001	9.491969e-001	9.655382e-001	9.815062e-001	9.962389e-001	1.009072e+000	1.019730e+000	1.028065e+000	1.034158e+000	1.038152e+000	1.040228e+000	1.040598e+000	1.039506e+000	1.037129e+000	1.033723e+000	1.029404e+000	1.024393e+000	1.018787e+000	1.012753e+000	1.006387e+000	9.997967e-001	9.930641e-001	9.862613e-001	9.794479e-001	9.726914e-001	9.660493e-001	9.595800e-001	9.533965e-001	9.478527e-001	9.431363e-001	9.385065e-001	9.334329e-001	9.320719e-001	9.424035e-001	9.552455e-001	9.271243e-001	8.031143e-001	6.985440e-001	6.805098e-001	6.925497e-001	6.997098e-001	7.021121e-001	7.037887e-001	7.061677e-001	7.089439e-001	7.118298e-001	7.148973e-001	7.181488e-001	7.216823e-001	7.257466e-001	7.306777e-001	7.366498e-001	7.434184e-001	7.505642e-001	7.580382e-001	7.662381e-001	7.756315e-001	7.864072e-001	7.983025e-001	8.112592e-001	8.254080e-001	8.408387e-001	8.577516e-001	8.762451e-001	8.965286e-001	9.188812e-001	9.434728e-001	9.705986e-001	1.000611e+000	1.033570e+000	1.069741e+000	1.109200e+000	1.151339e+000	1.195461e+000	1.240089e+000	1.282843e+000	1.317778e+000	1.346119e+000	1.352667e+000	1.344508e+000	1.339410e+000	1.314125e+000	1.261735e+000	1.215062e+000	1.169430e+000	1.128160e+000	1.092248e+000	1.061267e+000	1.034213e+000	1.010496e+000	9.893951e-001	9.702404e-001	9.527100e-001	9.363814e-001	9.209648e-001	9.062774e-001	8.920901e-001	8.782269e-001	8.646573e-001	8.512711e-001	8.380176e-001	8.247758e-001	8.114362e-001	7.980609e-001	7.848170e-001	7.718665e-001	7.591695e-001	7.463732e-001	7.332810e-001	7.199848e-001	7.068566e-001	6.940959e-001	6.817901e-001	6.698363e-001	6.582220e-001	6.468757e-001	6.357897e-001	6.250320e-001	6.145346e-001	6.044014e-001	5.947185e-001	5.857646e-001	5.776937e-001	5.703630e-001	5.634460e-001	5.568863e-001	5.506808e-001	5.451083e-001	5.401729e-001	5.362293e-001	5.332347e-001	5.311802e-001	5.296208e-001	5.290594e-001	5.298742e-001	5.316711e-001	5.340852e-001	5.558855e-001	7.022862e-001	9.465836e-001	1.014943e+000	1.009791e+000	1.007107e+000	1.010679e+000	1.012329e+000	1.012628e+000	1.012488e+000	1.011733e+000	1.010336e+000	1.008413e+000	1.006062e+000	1.003423e+000	1.000657e+000	9.979861e-001	9.956374e-001	9.939098e-001	9.931047e-001	9.935201e-001	9.953801e-001	9.988177e-001	1.003789e+000	1.010117e+000	1.017528e+000	1.025684e+000	1.034293e+000	1.043100e+000	1.051886e+000	1.060455e+000	1.068623e+000	1.076231e+000	1.083199e+000	1.089611e+000	1.095649e+000	1.101738e+000	1.108146e+000	1.115800e+000	1.124747e+000	1.136708e+000	1.148560e+000	1.148878e+000	9.978472e-001	9.995265e-001	9.997636e-001	9.996123e-001	9.995485e-001	9.994575e-001	9.993496e-001	9.992154e-001	9.990680e-001	9.989855e-001	9.989677e-001	9.990868e-001	9.993003e-001	9.996444e-001	9.999176e-001	1.000124e+000	1.000233e+000	1.000295e+000	1.000325e+000	1.000335e+000	1.000337e+000	1.000335e+000	1.000332e+000	1.000337e+000	1.000341e+000	1.000351e+000	1.000371e+000	1.000398e+000	1.000437e+000	1.000494e+000	1.000557e+000	1.000657e+000	1.000750e+000	1.000905e+000	1.001039e+000	1.001194e+000	1.001344e+000	1.001381e+000	1.001371e+000	1.001246e+000	1.001113e+000	1.000937e+000	1.000772e+000	1.000613e+000	1.000480e+000	1.000293e+000	1.000132e+000	1.000243e+000	9.987335e-001	9.966978e-001	8.878385e-001	1.009368e+000	5.682458e-001	1.003011e+000	7.256232e-001	1.161165e+000	1.153351e+000	1.037121e+000	1.020523e+000	1.299071e+000	1.035579e+000	5.313865e-001	1.132409e+000	1.125575e+000	5.296025e-001	1.029619e+000	1.341525e+000	1.116290e+000	1.103282e+000	1.330802e+000	1.003301e+000	1.021529e+000	1.032869e+000	6.101757e-001	1.002447e+000	6.879004e-001	9.766987e-001	1.105812e+000	9.484522e-001	8.515501e-001	9.252465e-001	1.348201e+000	9.339438e-001	9.167919e-001	1.079189e+000	9.559541e-001	9.902211e-001	9.798789e-001	1.085748e+000	1.037507e+000	7.578815e-001	9.356564e-001	1.036968e+000	1.144472e+000	9.841020e-001	9.380559e-001	9.586980e-001	9.387558e-001	9.481170e-001	9.437412e-001	7.841718e-001	1.012413e+000	8.870835e-001	9.310672e-001	9.656839e-001	7.067466e-001	6.922286e-001	9.828673e-001	7.108641e-001	9.215885e-001	7.659348e-001	7.370630e-001	8.356475e-001	8.075168e-001	9.711700e-001	7.501859e-001	9.905967e-001	9.624611e-001	1.044499e+000	1.138284e+000	1.195493e+000	1.047318e+000	9.184906e-001	9.539192e-001	1.063589e+000	1.261068e+000	1.012934e+000	7.203170e-001	9.648496e-001	1.033047e+000	1.035806e+000	7.951684e-001	7.276746e-001	9.776119e-001	1.015151e+000	9.085051e-001	1.235435e+000	1.116251e+000	6.846494e-001	7.431312e-001	1.192232e+000	7.238450e-001	8.210249e-001	7.083237e-001	7.170066e-001	9.343854e-001	1.025379e+000	1.330381e+000	1.306557e+000	5.333802e-001	1.346058e+000	1.000718e+000	9.290350e-001	9.622371e-001	8.301795e-001	5.755071e-001	1.119005e+000	5.361115e-001	5.489077e-001	1.071311e+000	1.056154e+000	9.985115e-001	5.438218e-001	5.613143e-001	5.914616e-001	1.017123e+000	1.005386e+000	8.847064e-001	1.078252e+000	1.048138e+000	1.032016e+000	8.571469e-001	9.137256e-001	6.530711e-001	6.760428e-001	7.647374e-001	6.310313e-001	5.548827e-001	5.832290e-001	7.902100e-001	8.166866e-001	5.767333e-001	7.387294e-001	7.126298e-001	1.013091e+000	5.303343e-001	1.011048e+000	1.009929e+000	1.007029e+000	1.010016e+000	9.989051e-001	1.002903e+000	1.001281e+000	9.967850e-001	1.040029e+000	1.010732e+000	1.063930e+000	9.974898e-001	9.970610e-001	1.005046e+000	1.000794e+000	1.010825e+000	1.008723e+000	1.007321e+000	1.010716e+000	8.483830e-001	1.007726e+000	5.314406e-001	5.326224e-001	7.255750e-001	7.001098e-001	7.774495e-001	7.518784e-001	9.451141e-001	8.033108e-001	1.074812e+000	9.806667e-001	7.319777e-001	1.178708e+000	1.008812e+000	1.028156e+000	7.026745e-001	9.530020e-001	1.220017e+000	1.022772e+000	1.140420e+000	8.707874e-001	8.989734e-001	6.644285e-001	8.436548e-001	1.084773e+000	1.090981e+000	6.419327e-001	1.097174e+000	1.103609e+000	6.204836e-001	6.004576e-001	1.024305e+000	1.158557e+000	1.129250e+000	1.139551e+000	9.970074e-001	9.557908e-001	1.110767e+000	5.394730e-001	1.273553e+000	1.155358e+000	8.688922e-001	7.745125e-001	7.138601e-001	9.061079e-001	1.281127e+000	1.312781e+000	7.197820e-001	1.021398e+000	9.339269e-001	1.187622e+000	5.346198e-001	1.016740e+000	1.032940e+000	1.114113e+000	7.111487e-001	9.966160e-001	1.015110e+000	8.469188e-001	1.311636e+000	7.398626e-001	1.116547e+000	1.003973e+000	7.752580e-001	1.025514e+000	1.006145e+000	9.380108e-001	8.630656e-001	8.186920e-001	9.500523e-001	1.030857e+000	1.141897e+000	1.054998e+000	1.007711e+000	1.001711e+000	8.500270e-001	9.987266e-001	7.841960e-001	1.000534e+000	1.091980e+000	6.278369e-001	5.447531e-001	1.044834e+000	1.001751e+000	1.098076e+000	1.052201e+000	1.079659e+000	7.076628e-001	6.385936e-001	7.200345e-001	8.636928e-001	1.011639e+000	7.452369e-001	1.110237e+000	8.096766e-001	9.532099e-001	1.066483e+000	1.104605e+000	1.004051e+000	7.664268e-001	1.174858e+000	1.120006e+000	1.111756e+000	1.175798e+000	1.247687e+000	1.223090e+000	1.341943e+000	1.339123e+000	1.082606e+000	1.188887e+000	8.994474e-001	1.143497e+000	1.129677e+000	5.823455e-001	9.640232e-001	1.103210e+000	9.734270e-001	5.337452e-001	1.122678e+000	1.332767e+000	9.449987e-001	5.905259e-001	1.006641e+000	6.721151e-001	9.854290e-001	9.613902e-001	8.805291e-001	9.405321e-001	9.315329e-001	9.595338e-001	1.020470e+000	9.803102e-001	1.028208e+000	1.089111e+000	7.943959e-001	1.033067e+000	1.033634e+000	1.136364e+000	9.403690e-001	9.447047e-001	9.487225e-001	1.050680e+000	9.453697e-001	9.615905e-001	7.038362e-001	9.663000e-001	9.345637e-001	9.438711e-001	7.845299e-001	8.319212e-001	9.699743e-001	9.883708e-001	1.051173e+000	1.071733e+000	1.028865e+000	1.031493e+000	8.181478e-001	8.056062e-001	9.760651e-001	9.822129e-001	9.423130e-001	9.200489e-001	1.151620e+000	6.898905e-001	7.068369e-001	7.583944e-001	7.513858e-001	7.350653e-001	7.307696e-001	7.165646e-001	7.139373e-001	7.268437e-001	1.332943e+000	1.257344e+000	9.705383e-001	1.085885e+000	5.405363e-001	5.493659e-001	5.548543e-001	5.607159e-001	1.073227e+000	1.059465e+000	1.017367e+000	5.674365e-001	5.745652e-001	5.992372e-001	1.011935e+000	1.037485e+000	9.210885e-001	9.367893e-001	6.955955e-001	6.836986e-001	7.968954e-001	8.229032e-001	8.364221e-001	1.007515e+000	1.009138e+000	1.008415e+000	1.008606e+000	1.003097e+000	1.007448e+000	1.000229e+000	1.000708e+000	1.004612e+000	1.006150e+000	1.009297e+000	1.009510e+000	1.007867e+000	1.004446e+000	9.761790e-001	6.656675e-001	5.347483e-001	5.373352e-001	5.436048e-001	5.237471e-001	7.325281e-001	7.453741e-001	7.583507e-001	7.714106e-001	1.081390e+000	9.891080e-001	1.009275e+000	1.027252e+000	1.022013e+000	9.531256e-001	9.583072e-001	1.211909e+000	1.031174e+000	8.775110e-001	8.915883e-001	6.494776e-001	6.606775e-001	6.082109e-001	6.177244e-001	1.030342e+000	1.023563e+000	9.944406e-001	1.000403e+000	9.922731e-001	1.288232e+000	7.232318e-001	1.313359e+000	8.983069e-001	7.262286e-001	1.028313e+000	9.637223e-001	9.454746e-001	1.092659e+000	1.086806e+000	1.055705e+000	1.204114e+000	1.099070e+000	1.128911e+000	1.141422e+000	1.134551e+000	1.168474e+000	1.086460e+000	1.315837e+000	8.590649e-001	9.473298e-001	1.112986e+000	5.414022e-001	1.153023e+000	1.212403e+000	1.021447e+000	1.270247e+000	1.024791e+000	1.117041e+000	9.823284e-001	1.180823e+000	7.144983e-001	9.922660e-001	1.017653e+000	1.121102e+000	1.148956e+000	1.074858e+000	5.508710e-001	1.042312e+000	1.011258e+000	1.105030e+000	5.563143e-001	6.921836e-001	6.467282e-001	8.049303e-001	9.291007e-001	1.136721e+000	1.290451e+000	1.262206e+000	1.086523e+000	1.293370e+000	1.023661e+000	8.753791e-001	1.334137e+000	7.847908e-001	9.421763e-001	1.056937e+000	1.142241e+000	1.003865e+000	1.007526e+000	9.977594e-001	1.080942e+000	1.049013e+000	1.006558e+000	1.004560e+000	6.577712e-001	6.804426e-001	7.283692e-001	8.713492e-001	1.008413e+000	1.013140e+000	7.541113e-001	1.113556e+000	8.174498e-001	1.068689e+000	1.111774e+000	1.172644e+000	1.235431e+000	1.242410e+000	1.325201e+000	1.028425e+000	1.165073e+000	1.156701e+000	1.043635e+000	1.103720e+000	5.376804e-001	9.429899e-001	5.983666e-001	1.009517e+000	1.001372e+000	9.722649e-001	9.624822e-001	9.116781e-001	8.928972e-001	9.541626e-001	9.481011e-001	9.836773e-001	1.003207e+000	1.092410e+000	1.030024e+000	1.029573e+000	1.127560e+000	9.458778e-001	9.497083e-001	9.611382e-001	9.545440e-001	1.001904e+000	9.543830e-001	9.668366e-001	8.056763e-001	7.950791e-001	9.692562e-001	9.749543e-001	1.062157e+000	1.078449e+000	1.027358e+000	1.029040e+000	8.439193e-001	8.296047e-001	8.167343e-001	9.807112e-001	9.865185e-001	9.773314e-001	9.539822e-001	9.319882e-001	7.043812e-001	7.002835e-001	7.573218e-001	7.756154e-001	7.676844e-001	7.605467e-001	7.482139e-001	7.429528e-001	7.226347e-001	7.195582e-001	7.381975e-001	9.790100e-001	5.615086e-001	5.677530e-001	1.062275e+000	5.743310e-001	5.817743e-001	5.896356e-001	6.074492e-001	1.017947e+000	9.448959e-001	9.615724e-001	7.039590e-001	7.161539e-001	8.301319e-001	8.436461e-001	8.575600e-001	1.008090e+000	1.013286e+000	1.009460e+000	1.003430e+000	1.003022e+000	1.003245e+000	1.004758e+000	1.005748e+000	1.006701e+000	1.008049e+000	1.008283e+000	1.008211e+000	1.007719e+000	1.006392e+000	9.991864e-001	8.376828e-001	5.427408e-001	5.467726e-001	5.697248e-001	5.210453e-001	5.370477e-001	7.408190e-001	7.531990e-001	7.659653e-001	7.789271e-001	7.921072e-001	9.972915e-001	1.017136e+000	1.025580e+000	1.021591e+000	1.016275e+000	9.536576e-001	9.584003e-001	1.038746e+000	1.061705e+000	8.851863e-001	8.993954e-001	9.139653e-001	6.690428e-001	6.170903e-001	6.266274e-001	6.364130e-001	1.035715e+000	1.029341e+000	1.023344e+000	9.921946e-001	9.978386e-001	1.003182e+000	7.339906e-001	7.300656e-001	1.293301e+000	8.717340e-001	1.105015e+000	1.076105e+000	9.682917e-001	1.297795e+000	1.140558e+000	9.602229e-001	9.658820e-001	1.035040e+000	1.093031e+000	5.712010e-001	1.271140e+000	1.114604e+000	1.200352e+000	1.052435e+000	1.098925e+000	1.245673e+000	9.354685e-001	1.221971e+000	1.143775e+000	1.168031e+000	1.023900e+000	7.960392e-001	1.088938e+000	9.436068e-001	8.880762e-001	9.440711e-001	7.338900e-001	1.081783e+000	5.510257e-001	1.046296e+000	1.040227e+000	1.006895e+000	8.268083e-001	7.144926e-001	1.104078e+000	9.526976e-001	9.890617e-001	1.118385e+000	1.087411e+000	1.126199e+000	1.055200e+000	1.116100e+000	1.017802e+000	1.227228e+000	1.020430e+000	1.023692e+000	1.144614e+000	1.112173e+000	1.172967e+000	1.005208e+000	5.635357e-001	6.793028e-001	1.273590e+000	1.140518e+000	1.013760e+000	1.009001e+000	6.684308e-001	6.910358e-001	7.023932e-001	1.009870e+000	1.013582e+000	1.070307e+000	1.167056e+000	1.194769e+000	1.252077e+000	1.306754e+000	1.061519e+000	1.039008e+000	1.094477e+000	5.473473e-001	1.004338e+000	9.971433e-001	9.808808e-001	9.730473e-001	9.238287e-001	9.054045e-001	9.662261e-001	9.611271e-001	9.589528e-001	1.004974e+000	1.022045e+000	1.026651e+000	1.025000e+000	1.119528e+000	9.465224e-001	9.506062e-001	9.607090e-001	9.494838e-001	9.756170e-001	9.889557e-001	8.184120e-001	8.064148e-001	9.737396e-001	1.069960e+000	1.083153e+000	1.024643e+000	1.026208e+000	8.562260e-001	8.420839e-001	8.299420e-001	9.791716e-001	9.845738e-001	1.011074e+000	9.875802e-001	9.646128e-001	9.432868e-001	7.184012e-001	7.127926e-001	7.377429e-001	8.399695e-001	7.873277e-001	7.791692e-001	7.718264e-001	7.646802e-001	7.584231e-001	7.254862e-001	7.296939e-001	7.525138e-001	5.771717e-001	1.064476e+000	1.058488e+000	5.843075e-001	5.913197e-001	5.997517e-001	6.080814e-001	6.178257e-001	9.693831e-001	9.870394e-001	7.262296e-001	7.387548e-001	8.392590e-001	8.517581e-001	8.655040e-001	8.796456e-001	1.018907e+000	1.014943e+000	1.011497e+000	1.007020e+000	1.005948e+000	1.005244e+000	1.005253e+000	1.005723e+000	1.006166e+000	1.006694e+000	1.007217e+000	1.006919e+000	1.006552e+000	1.004455e+000	1.002759e+000	1.001601e+000	1.002549e+000	5.596421e-001	5.534515e-001	6.530400e-001	5.567785e-001	5.355939e-001	5.369417e-001	7.507782e-001	7.632020e-001	7.750978e-001	7.875429e-001	8.002412e-001	8.134160e-001	1.005120e+000	1.023798e+000	1.020123e+000	1.016013e+000	1.010768e+000	9.545007e-001	9.581044e-001	9.631564e-001	1.044720e+000	1.066921e+000	1.089699e+000	8.936693e-001	9.075945e-001	9.221521e-001	9.371380e-001	6.273303e-001	6.377940e-001	6.476701e-001	6.575709e-001	1.023642e+000	1.034302e+000	1.028791e+000	9.900228e-001	9.951089e-001	1.000410e+000	1.004952e+000	7.475134e-001	7.427008e-001	7.383776e-001	1.140402e+000	1.101033e+000	1.050931e+000	1.139233e+000	1.165735e+000	1.019945e+000	8.849209e-001	1.189845e+000	1.071590e+000	1.235467e+000	1.065143e+000	8.100024e-001	8.505651e-001	1.138262e+000	1.209742e+000	1.274622e+000	1.316071e+000	1.315664e+000	1.307424e+000	1.253280e+000	1.121386e+000	6.918114e-001	1.063962e+000	1.104444e+000	9.854366e-001	1.020062e+000	9.537904e-001	1.092995e+000	1.023781e+000	1.038769e+000	5.661434e-001	5.766188e-001	8.654367e-001	1.006036e+000	5.882428e-001	9.691740e-001	6.785082e-001	1.087706e+000	9.012153e-001	1.130776e+000	1.076963e+000	1.311187e+000	1.162519e+000	1.153685e+000	9.750966e-001	1.041928e+000	1.272355e+000	1.114678e+000	1.213323e+000	1.049557e+000	1.230818e+000	1.143478e+000	1.153928e+000	1.115408e+000	7.353229e-001	7.419720e-001	1.082264e+000	5.585739e-001	1.044092e+000	1.096075e+000	1.014917e+000	1.254107e+000	7.007635e-001	7.147195e-001	7.241354e-001	1.007861e+000	1.161754e+000	1.185846e+000	1.285668e+000	1.090973e+000	1.000305e+000	9.943464e-001	9.883901e-001	9.812263e-001	9.181048e-001	9.367648e-001	9.769333e-001	9.713763e-001	9.714649e-001	9.724199e-001	1.022749e+000	1.037042e+000	1.022631e+000	1.111627e+000	9.463212e-001	9.493566e-001	9.572933e-001	9.492514e-001	9.962363e-001	1.008671e+000	8.308823e-001	8.169577e-001	1.075981e+000	1.086709e+000	1.021969e+000	8.691237e-001	8.538754e-001	8.452657e-001	9.795886e-001	1.019556e+000	9.970933e-001	9.751623e-001	9.558065e-001	7.327530e-001	7.261491e-001	7.411615e-001	7.910085e-001	8.907852e-001	7.985893e-001	7.925193e-001	7.820963e-001	7.768239e-001	7.678412e-001	1.066131e+000	1.060680e+000	1.055154e+000	5.937729e-001	6.033281e-001	6.094027e-001	6.202408e-001	6.273161e-001	9.772704e-001	9.948588e-001	7.385866e-001	7.484089e-001	8.596078e-001	8.736268e-001	8.883207e-001	1.020009e+000	1.015945e+000	1.013332e+000	1.010448e+000	1.009004e+000	1.007276e+000	1.006623e+000	1.005968e+000	1.005794e+000	1.005917e+000	1.003350e+000	1.002118e+000	1.028666e+000	5.631511e-001	5.469487e-001	7.631337e-001	7.728327e-001	7.871310e-001	7.962818e-001	8.102038e-001	8.231473e-001	8.364766e-001	1.012679e+000	1.030601e+000	1.015383e+000	1.011565e+000	1.006272e+000	9.538221e-001	9.599856e-001	1.049710e+000	1.071195e+000	1.092410e+000	9.027330e-001	9.168135e-001	9.308443e-001	9.461977e-001	9.616378e-001	6.392411e-001	6.471925e-001	6.596326e-001	6.705586e-001	1.033691e+000	1.028607e+000	9.897644e-001	9.992939e-001	7.634832e-001	7.559256e-001	7.524329e-001	7.458225e-001	1.146258e+000	1.124290e+000	1.179713e+000	1.284888e+000	1.160943e+000	1.070443e+000	1.082667e+000	1.236537e+000	1.052084e+000	1.123844e+000	1.089386e+000	1.266746e+000	1.068556e+000	1.158169e+000	6.967593e-001	1.139761e+000	1.155982e+000	1.216595e+000	1.135934e+000	1.059858e+000	9.651436e-001	1.077527e+000	7.460008e-001	1.002905e+000	9.889245e-001	9.935109e-001	8.979543e-001	8.170368e-001	1.236039e+000	9.540747e-001	9.323336e-001	9.156495e-001	8.763641e-001	1.067230e+000	1.025633e+000	1.255120e+000	1.134886e+000	1.048630e+000	1.134476e+000	1.072285e+000	1.313009e+000	1.252614e+000	1.097513e+000	1.017601e+000	5.969838e-001	6.093369e-001	1.087834e+000	1.146543e+000	1.103501e+000	1.291738e+000	1.156609e+000	1.048021e+000	1.219515e+000	1.200311e+000	5.749572e-001	1.091236e+000	1.047347e+000	1.042133e+000	5.849326e-001	7.186352e-001	7.421496e-001	1.014476e+000	1.177017e+000	1.197621e+000	1.114458e+000	9.956681e-001	9.871039e-001	9.490537e-001	9.812812e-001	9.831385e-001	1.036842e+000	1.104802e+000	9.495302e-001	1.013873e+000	1.024960e+000	8.364282e-001	1.080264e+000	1.018717e+000	1.017909e+000	8.756282e-001	8.579173e-001	9.745063e-001	1.027242e+000	1.004974e+000	9.842099e-001	9.701260e-001	7.460698e-001	8.042048e-001	9.154516e-001	7.990366e-001	7.829855e-001	1.062207e+000	1.057220e+000	6.259207e-001	6.441319e-001	1.001301e+000	7.664693e-001	8.964099e-001	1.005068e+000	1.018343e+000	1.012649e+000	1.008868e+000	1.006943e+000	1.005827e+000	1.004843e+000	1.002451e+000	9.977748e-001	1.014744e+000	9.791173e-001	6.613792e-001	5.605673e-001	5.588495e-001	7.907190e-001	8.135562e-001	8.343618e-001	8.447213e-001	8.601476e-001	1.019788e+000	1.036995e+000	1.014737e+000	1.009660e+000	1.002761e+000	9.506469e-001	9.570365e-001	1.054305e+000	1.074006e+000	1.094278e+000	1.114064e+000	9.120212e-001	9.262888e-001	9.400567e-001	9.546347e-001	9.722802e-001	9.842870e-001	6.633859e-001	6.818939e-001	1.037471e+000	1.032768e+000	9.842793e-001	1.001850e+000	1.008992e+000	7.692803e-001	7.570895e-001	1.092438e+000	1.146590e+000	1.142299e+000	1.109225e+000	1.004019e+000	1.083140e+000	1.137859e+000	1.118854e+000	1.188292e+000	1.131990e+000	1.130001e+000	1.110637e+000	1.168575e+000	1.236654e+000	1.248308e+000	1.058632e+000	1.014836e+000	7.068821e-001	1.099332e+000	9.910657e-001	1.091541e+000	1.000557e+000	1.150280e+000	1.170330e+000	9.384489e-001	1.018262e+000	9.964895e-001	9.704810e-001	1.066553e+000	1.075301e+000	1.071668e+000	1.054058e+000	1.134658e+000	1.072907e+000	1.077730e+000	1.049584e+000	7.480700e-001	5.838784e-001	1.009212e+000	9.598776e-001	1.120416e+000	1.125280e+000	1.294484e+000	1.057250e+000	1.053948e+000	1.155814e+000	1.083584e+000	1.220410e+000	1.151086e+000	9.618094e-001	1.234464e+000	9.476816e-001	9.279234e-001	1.068094e+000	1.266345e+000	1.047620e+000	1.091201e+000	1.013046e+000	1.271237e+000	1.156083e+000	9.796403e-001	1.220055e+000	1.204913e+000	6.