# vtk DataFile Version 3.0
vtk output
ASCII
DATASET UNSTRUCTURED_GRID
POINTS 5233 float
9.997500e-001	-3.632443e-005	0.0	9.990000e-001	-1.449680e-004	0.0	9.977600e-001	-3.219875e-004	0.0	9.960200e-001	-5.602250e-004	0.0	9.937800e-001	-8.403458e-004	0.0	9.910500e-001	-1.129347e-003	0.0	9.878400e-001	-1.387373e-003	0.0	9.841300e-001	-1.582839e-003	0.0	9.799500e-001	-1.707284e-003	0.0	9.752800e-001	-1.798913e-003	0.0	9.701500e-001	-1.943463e-003	0.0	9.645400e-001	-2.261360e-003	0.0	9.584700e-001	-2.871917e-003	0.0	9.519400e-001	-3.858073e-003	0.0	9.449600e-001	-5.238893e-003	0.0	9.375400e-001	-6.966808e-003	0.0	9.296900e-001	-8.945825e-003	0.0	9.214000e-001	-1.106549e-002	0.0	9.127000e-001	-1.321230e-002	0.0	9.035800e-001	-1.530725e-002	0.0	8.940600e-001	-1.729449e-002	0.0	8.841500e-001	-1.914838e-002	0.0	8.738500e-001	-2.086506e-002	0.0	8.631800e-001	-2.244917e-002	0.0	8.521600e-001	-2.391164e-002	0.0	8.407700e-001	-2.526973e-002	0.0	8.290500e-001	-2.653252e-002	0.0	8.170100e-001	-2.771196e-002	0.0	8.046400e-001	-2.882082e-002	0.0	7.919700e-001	-2.986794e-002	0.0	7.790100e-001	-3.086457e-002	0.0	7.657800e-001	-3.182198e-002	0.0	7.522800e-001	-3.275374e-002	0.0	7.385200e-001	-3.367325e-002	0.0	7.245300e-001	-3.459277e-002	0.0	7.103200e-001	-3.552547e-002	0.0	6.958900e-001	-3.648411e-002	0.0	6.812700e-001	-3.747781e-002	0.0	6.664700e-001	-3.851480e-002	0.0	6.515000e-001	-3.960074e-002	0.0	6.363800e-001	-4.073776e-002	0.0	6.211300e-001	-4.192499e-002	0.0	6.057600e-001	-4.315943e-002	0.0	5.902800e-001	-4.443547e-002	0.0	5.747100e-001	-4.574423e-002	0.0	5.590600e-001	-4.707565e-002	0.0	5.433600e-001	-4.841637e-002	0.0	5.276100e-001	-4.975445e-002	0.0	5.118400e-001	-5.107477e-002	0.0	4.960500e-001	-5.236453e-002	0.0	4.802700e-001	-5.360870e-002	0.0	4.645100e-001	-5.479454e-002	0.0	4.487800e-001	-5.591016e-002	0.0	4.331100e-001	-5.694348e-002	0.0	4.175000e-001	-5.788581e-002	0.0	4.019700e-001	-5.872855e-002	0.0	3.865400e-001	-5.946468e-002	0.0	3.712300e-001	-6.008876e-002	0.0	3.560400e-001	-6.059747e-002	0.0	3.409900e-001	-6.098783e-002	0.0	3.261100e-001	-6.125793e-002	0.0	3.114000e-001	-6.140746e-002	0.0	2.968700e-001	-6.143635e-002	0.0	2.825500e-001	-6.134514e-002	0.0	2.684500e-001	-6.113491e-002	0.0	2.545700e-001	-6.080656e-002	0.0	2.409400e-001	-6.036173e-002	0.0	2.275700e-001	-5.980180e-002	0.0	2.144700e-001	-5.912805e-002	0.0	2.016600e-001	-5.834229e-002	0.0	1.891400e-001	-5.744513e-002	0.0	1.769300e-001	-5.643850e-002	0.0	1.650400e-001	-5.532381e-002	0.0	1.534900e-001	-5.410371e-002	0.0	1.422900e-001	-5.278040e-002	0.0	1.314400e-001	-5.135502e-002	0.0	1.209500e-001	-4.983017e-002	0.0	1.108500e-001	-4.821229e-002	0.0	1.011300e-001	-4.650233e-002	0.0	9.181000e-002	-4.470662e-002	0.0	8.290000e-002	-4.283067e-002	0.0	7.440000e-002	-4.087832e-002	0.0	6.633000e-002	-3.885842e-002	0.0	5.869000e-002	-3.677569e-002	0.0	5.149000e-002	-3.463749e-002	0.0	4.474000e-002	-3.245167e-002	0.0	3.844000e-002	-3.022276e-002	0.0	3.260000e-002	-2.795829e-002	0.0	2.723000e-002	-2.566592e-002	0.0	2.232000e-002	-2.334357e-002	0.0	1.790000e-002	-2.100724e-002	0.0	1.395000e-002	-1.864668e-002	0.0	1.049000e-002	-1.627173e-002	0.0	7.520000e-003	-1.387988e-002	0.0	5.040000e-003	-1.146547e-002	0.0	3.050000e-003	-9.018176e-003	0.0	1.560000e-003	-6.538833e-003	0.0	5.600000e-004	-3.988311e-003	0.0	6.000000e-005	-1.339545e-003	0.0	0.000000e+000	0.000000e+000	0.0	6.000000e-005	1.534334e-003	0.0	5.600000e-004	4.843472e-003	0.0	1.560000e-003	8.150102e-003	0.0	3.050000e-003	1.138850e-002	0.0	5.040000e-003	1.456425e-002	0.0	7.520000e-003	1.765261e-002	0.0	1.049000e-002	2.065532e-002	0.0	1.395000e-002	2.357532e-002	0.0	1.790000e-002	2.641643e-002	0.0	2.232000e-002	2.917112e-002	0.0	2.723000e-002	3.185782e-002	0.0	3.260000e-002	3.446562e-002	0.0	3.844000e-002	3.700527e-002	0.0	4.474000e-002	3.947653e-002	0.0	5.149000e-002	4.187923e-002	0.0	5.869000e-002	4.421598e-002	0.0	6.633000e-002	4.648500e-002	0.0	7.440000e-002	4.868410e-002	0.0	8.290000e-002	5.081297e-002	0.0	9.181000e-002	5.286559e-002	0.0	1.011300e-001	5.484029e-002	0.0	1.108500e-001	5.673244e-002	0.0	1.209500e-001	5.853534e-002	0.0	1.314400e-001	6.024732e-002	0.0	1.422900e-001	6.185968e-002	0.0	1.534900e-001	6.336733e-002	0.0	1.650400e-001	6.476630e-002	0.0	1.769300e-001	6.605115e-002	0.0	1.891400e-001	6.721579e-002	0.0	2.016600e-001	6.825566e-002	0.0	2.144700e-001	6.916596e-002	0.0	2.275700e-001	6.994392e-002	0.0	2.409400e-001	7.058601e-002	0.0	2.545700e-001	7.109015e-002	0.0	2.684500e-001	7.145501e-002	0.0	2.825500e-001	7.167985e-002	0.0	2.968700e-001	7.176563e-002	0.0	3.114000e-001	7.171390e-002	0.0	3.261100e-001	7.152750e-002	0.0	3.409900e-001	7.121036e-002	0.0	3.560400e-001	7.076698e-002	0.0	3.712300e-001	7.020360e-002	0.0	3.865400e-001	6.952733e-002	0.0	4.019700e-001	6.874511e-002	0.0	4.175000e-001	6.786527e-002	0.0	4.331100e-001	6.689675e-002	0.0	4.487800e-001	6.584878e-002	0.0	4.645100e-001	6.472921e-002	0.0	4.802700e-001	6.354775e-002	0.0	4.960500e-001	6.231224e-002	0.0	5.118400e-001	6.102982e-002	0.0	5.276100e-001	5.970839e-002	0.0	5.433600e-001	5.835244e-002	0.0	5.590600e-001	5.696794e-002	0.0	5.747100e-001	5.555724e-002	0.0	5.902800e-001	5.412444e-002	0.0	6.057600e-001	5.267113e-002	0.0	6.211300e-001	5.119942e-002	0.0	6.363800e-001	4.971043e-002	0.0	6.515000e-001	4.820559e-002	0.0	6.664700e-001	4.668813e-002	0.0	6.812700e-001	4.516247e-002	0.0	6.958900e-001	4.363350e-002	0.0	7.103200e-001	4.210766e-002	0.0	7.245300e-001	4.059499e-002	0.0	7.385200e-001	3.910348e-002	0.0	7.522800e-001	3.764271e-002	0.0	7.657800e-001	3.622393e-002	0.0	7.790100e-001	3.485467e-002	0.0	7.919700e-001	3.353854e-002	0.0	8.046400e-001	3.227697e-002	0.0	8.170100e-001	3.106479e-002	0.0	8.290500e-001	2.989243e-002	0.0	8.407700e-001	2.873984e-002	0.0	8.521600e-001	2.758307e-002	0.0	8.631800e-001	2.639742e-002	0.0	8.738500e-001	2.515109e-002	0.0	8.841500e-001	2.381956e-002	0.0	8.940600e-001	2.238617e-002	0.0	9.035800e-001	2.084253e-002	0.0	9.127000e-001	1.919439e-002	0.0	9.214000e-001	1.746224e-002	0.0	9.296900e-001	1.567064e-002	0.0	9.375400e-001	1.385882e-002	0.0	9.449600e-001	1.205978e-002	0.0	9.519400e-001	1.031105e-002	0.0	9.584700e-001	8.649321e-003	0.0	9.645400e-001	7.109288e-003	0.0	9.701500e-001	5.718988e-003	0.0	9.752800e-001	4.503493e-003	0.0	9.799500e-001	3.466847e-003	0.0	9.841300e-001	2.611091e-003	0.0	9.878400e-001	1.915756e-003	0.0	9.910500e-001	1.363072e-003	0.0	9.937800e-001	9.252386e-004	0.0	9.960200e-001	5.837826e-004	0.0	9.977600e-001	3.263578e-004	0.0	9.990000e-001	1.453669e-004	0.0	9.997500e-001	3.633075e-005	0.0	1.000000e+000	0.000000e+000	0.0	1.984229e+001	2.506660e+000	0.0	1.937166e+001	4.973800e+000	0.0	1.859553e+001	7.362490e+000	0.0	1.752613e+001	9.635070e+000	0.0	1.618034e+001	1.175571e+001	0.0	1.457937e+001	1.369094e+001	0.0	1.274848e+001	1.541027e+001	0.0	1.071654e+001	1.688656e+001	0.0	8.515590e+000	1.809654e+001	0.0	6.180340e+000	1.902113e+001	0.0	3.747630e+000	1.964575e+001	0.0	1.255810e+000	1.996053e+001	0.0	-1.255810e+000	1.996053e+001	0.0	-3.747630e+000	1.964574e+001	0.0	-6.180340e+000	1.902113e+001	0.0	-8.515590e+000	1.809654e+001	0.0	-1.071654e+001	1.688656e+001	0.0	-1.274848e+001	1.541026e+001	0.0	-1.457937e+001	1.369094e+001	0.0	-1.618034e+001	1.175570e+001	0.0	-1.752613e+001	9.635070e+000	0.0	-1.859553e+001	7.362490e+000	0.0	-1.937166e+001	4.973800e+000	0.0	-1.984229e+001	2.506660e+000	0.0	-2.000000e+001	0.000000e+000	0.0	-1.984229e+001	-2.506670e+000	0.0	-1.937166e+001	-4.973800e+000	0.0	-1.859553e+001	-7.362490e+000	0.0	-1.752613e+001	-9.635080e+000	0.0	-1.618034e+001	-1.175571e+001	0.0	-1.457937e+001	-1.369094e+001	0.0	-1.274848e+001	-1.541027e+001	0.0	-1.071653e+001	-1.688656e+001	0.0	-8.515580e+000	-1.809654e+001	0.0	-6.180340e+000	-1.902113e+001	0.0	-3.747620e+000	-1.964575e+001	0.0	-1.255810e+000	-1.996053e+001	0.0	1.255810e+000	-1.996053e+001	0.0	3.747630e+000	-1.964574e+001	0.0	6.180340e+000	-1.902113e+001	0.0	8.515590e+000	-1.809654e+001	0.0	1.071654e+001	-1.688656e+001	0.0	1.274848e+001	-1.541026e+001	0.0	1.457937e+001	-1.369094e+001	0.0	1.618034e+001	-1.175570e+001	0.0	1.752614e+001	-9.635070e+000	0.0	1.859553e+001	-7.362490e+000	0.0	1.937166e+001	-4.973790e+000	0.0	1.984229e+001	-2.506660e+000	0.0	2.000000e+001	0.000000e+000	0.0	6.071353e-002	-4.486974e-002	0.0	6.601189e-001	-5.297032e-002	0.0	4.260574e-001	8.167261e-002	0.0	6.899940e-001	5.788083e-002	0.0	3.793719e-001	-7.371656e-002	0.0	9.994555e-001	-7.222672e-004	0.0	9.985341e-001	-1.308423e-003	0.0	7.736186e-001	-4.336767e-002	0.0	6.897217e-001	-5.053637e-002	0.0	-1.682335e-003	7.436760e-003	0.0	7.465778e-001	-4.581895e-002	0.0	5.837838e-001	6.918121e-002	0.0	9.927222e-001	-3.430016e-003	0.0	9.897920e-001	-4.152972e-003	0.0	5.993323e-001	6.765287e-002	0.0	7.185807e-001	-4.817415e-002	0.0	-1.675313e-003	9.719199e-004	0.0	9.863630e-001	-4.859685e-003	0.0	9.824481e-001	-5.532583e-003	0.0	-1.507584e-003	-6.167485e-003	0.0	6.450761e-001	-5.422917e-002	0.0	8.243573e-001	-3.784016e-002	0.0	7.995761e-001	-4.074448e-002	0.0	3.488134e-001	8.469825e-002	0.0	8.478205e-001	-3.460230e-002	0.0	2.472824e-001	8.323816e-002	0.0	8.698940e-001	-3.094808e-002	0.0	9.597429e-003	2.518008e-002	0.0	8.904533e-001	-2.683224e-002	0.0	7.697870e-002	-4.966845e-002	0.0	9.094049e-001	-2.229750e-002	0.0	-2.051797e-003	-3.026685e-003	0.0	9.421460e-001	-1.327356e-002	0.0	9.266559e-001	-1.759945e-002	0.0	1.794757e-002	-2.635743e-002	0.0	4.260260e-001	-7.165896e-002	0.0	8.590411e-001	-3.282894e-002	0.0	9.558814e-001	-9.908602e-003	0.0	9.780474e-001	-6.203839e-003	0.0	9.678638e-001	-7.684042e-003	0.0	1.582189e-001	-6.525135e-002	0.0	9.001383e-001	-2.460787e-002	0.0	7.602280e-001	-4.461048e-002	0.0	9.971005e-001	-2.024329e-003	0.0	5.991500e-001	-5.817686e-002	0.0	4.417346e-001	-7.075056e-002	0.0	5.365598e-001	-6.362365e-002	0.0	4.733080e-001	-6.865032e-002	0.0	5.049541e-001	-6.624276e-002	0.0	4.891215e-001	-6.747892e-002	0.0	1.248921e-001	-6.016659e-002	0.0	2.784649e-002	-3.186711e-002	0.0	3.948322e-001	-7.314930e-002	0.0	4.620593e-002	-3.982
[...]
POINT_DATA 5233

SCALARS Density float 1
LOOKUP_TABLE default
1.188032e+000	1.161226e+000	1.142496e+000	1.124894e+000	1.109347e+000	1.098550e+000	1.095870e+000	1.102884e+000	1.117689e+000	1.135904e+000	1.152335e+000	1.162774e+000	1.165098e+000	1.158849e+000	1.144588e+000	1.123692e+000	1.098117e+000	1.070163e+000	1.042310e+000	1.017109e+000	9.963321e-001	9.806175e-001	9.696725e-001	9.627410e-001	9.588885e-001	9.572973e-001	9.573558e-001	9.586749e-001	9.609284e-001	9.638884e-001	9.673449e-001	9.710705e-001	9.748660e-001	9.784837e-001	9.817464e-001	9.844559e-001	9.864693e-001	9.876712e-001	9.879608e-001	9.872981e-001	9.856405e-001	9.829883e-001	9.793394e-001	9.747367e-001	9.692403e-001	9.629056e-001	9.557925e-001	9.480164e-001	9.398028e-001	9.312790e-001	9.221129e-001	9.117551e-001	9.014115e-001	8.946692e-001	8.933753e-001	8.917178e-001	8.753773e-001	8.340550e-001	7.882075e-001	7.660022e-001	7.650094e-001	7.712978e-001	7.777499e-001	7.829094e-001	7.876482e-001	7.926926e-001	7.982315e-001	8.041469e-001	8.102863e-001	8.165513e-001	8.229820e-001	8.297760e-001	8.371776e-001	8.452820e-001	8.540239e-001	8.632610e-001	8.730188e-001	8.834286e-001	8.945033e-001	9.062188e-001	9.186173e-001	9.316630e-001	9.453854e-001	9.597784e-001	9.748836e-001	9.907997e-001	1.007592e+000	1.025442e+000	1.044637e+000	1.065392e+000	1.088225e+000	1.113809e+000	1.142687e+000	1.175802e+000	1.213462e+000	1.254669e+000	1.294823e+000	1.335492e+000	1.350644e+000	1.349164e+000	1.349566e+000	1.330037e+000	1.282569e+000	1.231424e+000	1.174119e+000	1.117968e+000	1.066263e+000	1.020660e+000	9.814029e-001	9.483480e-001	9.206426e-001	8.971390e-001	8.771141e-001	8.597743e-001	8.445476e-001	8.309983e-001	8.185895e-001	8.068953e-001	7.957629e-001	7.850844e-001	7.748649e-001	7.650248e-001	7.552983e-001	7.453610e-001	7.351831e-001	7.250684e-001	7.153723e-001	7.059734e-001	6.965757e-001	6.869725e-001	6.773848e-001	6.680620e-001	6.592152e-001	6.508175e-001	6.428543e-001	6.352332e-001	6.279139e-001	6.209345e-001	6.142196e-001	6.078433e-001	6.018624e-001	5.965128e-001	5.919592e-001	5.880900e-001	5.846381e-001	5.815034e-001	5.786828e-001	5.763357e-001	5.744568e-001	5.732262e-001	5.725374e-001	5.722832e-001	5.723533e-001	5.725451e-001	5.728930e-001	5.732922e-001	5.736236e-001	5.736714e-001	5.732698e-001	5.731449e-001	5.740929e-001	5.744693e-001	5.740616e-001	5.748730e-001	6.706850e-001	9.009173e-001	1.005580e+000	1.003632e+000	9.957074e-001	9.960028e-001	9.953144e-001	9.924052e-001	9.886250e-001	9.841630e-001	9.791710e-001	9.743084e-001	9.704344e-001	9.685482e-001	9.695837e-001	9.741807e-001	9.823978e-001	9.937322e-001	1.007326e+000	1.022200e+000	1.037561e+000	1.052810e+000	1.067489e+000	1.081171e+000	1.093412e+000	1.103840e+000	1.112215e+000	1.118640e+000	1.123442e+000	1.127363e+000	1.131082e+000	1.135950e+000	1.142355e+000	1.152170e+000	1.163257e+000	1.160151e+000	9.979439e-001	9.994269e-001	9.995865e-001	9.993641e-001	9.992195e-001	9.990353e-001	9.988207e-001	9.985581e-001	9.982760e-001	9.980954e-001	9.980173e-001	9.981633e-001	9.984695e-001	9.990129e-001	9.994593e-001	9.998190e-001	1.000023e+000	1.000153e+000	1.000236e+000	1.000276e+000	1.000301e+000	1.000313e+000	1.000323e+000	1.000336e+000	1.000347e+000	1.000364e+000	1.000394e+000	1.000431e+000	1.000484e+000	1.000564e+000	1.000653e+000	1.000801e+000	1.000947e+000	1.001197e+000	1.001434e+000	1.001733e+000	1.002054e+000	1.002191e+000	1.002235e+000	1.002065e+000	1.001867e+000	1.001582e+000	1.001319e+000	1.001061e+000	1.000835e+000	1.000560e+000	1.000335e+000	1.000375e+000	9.989214e-001	9.969565e-001	9.659248e-001	9.866697e-001	5.876163e-001	5.731912e-001	8.626530e-001	1.166330e+000	1.152343e+000	9.717084e-001	9.865099e-001	1.310132e+000	9.779332e-001	5.743649e-001	1.111446e+000	1.105583e+000	5.747663e-001	9.833019e-001	1.346716e+000	1.106193e+000	1.113191e+000	1.320495e+000	9.854609e-001	9.632649e-001	9.662324e-001	6.122827e-001	9.649473e-001	6.650257e-001	9.746494e-001	1.080870e+000	9.973870e-001	9.374113e-001	1.035864e+000	1.342607e+000	1.125062e+000	1.083355e+000	1.097959e+000	8.979559e-001	9.685145e-001	1.147687e+000	1.124284e+000	1.145318e+000	8.502888e-001	1.014799e+000	9.748248e-001	1.136160e+000	9.763815e-001	9.005145e-001	9.526394e-001	9.196059e-001	9.372787e-001	9.290421e-001	8.783470e-001	1.053033e+000	8.942480e-001	9.975650e-001	8.999971e-001	7.749077e-001	7.767423e-001	1.033240e+000	7.874981e-001	1.105882e+000	8.590899e-001	8.279677e-001	9.242389e-001	8.999046e-001	9.660296e-001	8.421957e-001	9.803142e-001	9.840862e-001	1.074475e+000	1.122352e+000	1.184535e+000	1.000282e+000	1.059322e+000	1.139358e+000	1.136111e+000	1.271914e+000	9.633624e-001	8.027473e-001	9.596890e-001	9.808107e-001	9.687683e-001	8.887888e-001	8.149412e-001	9.716121e-001	9.870150e-001	9.813207e-001	1.219206e+000	1.123863e+000	8.109478e-001	8.348272e-001	1.202049e+000	8.086934e-001	9.117405e-001	7.819238e-001	7.972727e-001	9.090880e-001	9.852458e-001	1.340570e+000	1.290979e+000	5.738715e-001	1.346529e+000	9.387814e-001	8.578383e-001	8.928213e-001	7.728780e-001	5.914536e-001	1.137324e+000	5.742223e-001	5.784348e-001	1.095419e+000	1.073482e+000	9.765730e-001	5.764630e-001	5.841309e-001	6.005641e-001	1.006947e+000	9.862786e-001	8.170548e-001	1.104121e+000	1.060736e+000	1.033484e+000	7.938800e-001	8.431412e-001	6.406824e-001	6.565726e-001	7.218146e-001	6.259034e-001	5.810702e-001	5.957435e-001	7.417630e-001	7.626257e-001	5.749877e-001	7.025763e-001	6.832054e-001	5.747682e-001	5.740321e-001	1.007077e+000	5.864265e-001	9.965002e-001	9.955980e-001	9.846877e-001	9.917541e-001	9.798942e-001	9.777871e-001	1.047268e+000	9.954970e-001	1.085158e+000	9.809262e-001	9.760808e-001	9.945959e-001	9.884425e-001	1.006005e+000	9.958920e-001	5.703087e-001	7.877127e-001	5.747321e-001	5.761485e-001	5.738095e-001	5.750585e-001	6.928528e-001	6.739339e-001	7.316141e-001	7.122487e-001	8.742125e-001	7.522394e-001	1.038151e+000	9.141810e-001	8.213791e-001	1.176704e+000	1.149584e+000	9.643193e-001	7.697301e-001	9.450969e-001	1.226531e+000	9.672451e-001	1.127487e+000	8.051534e-001	8.296434e-001	6.484616e-001	7.831904e-001	1.111247e+000	1.117018e+000	6.331663e-001	1.121876e+000	1.126415e+000	6.189789e-001	6.060966e-001	1.019852e+000	1.172902e+000	1.145607e+000	1.154150e+000	9.833361e-001	1.014824e+000	1.131360e+000	5.750390e-001	1.255794e+000	1.152703e+000	9.512952e-001	8.684754e-001	7.922879e-001	8.414898e-001	1.288067e+000	1.320056e+000	7.980049e-001	9.855195e-001	1.051066e+000	1.182358e+000	5.760406e-001	9.860810e-001	9.732451e-001	1.111435e+000	7.802788e-001	9.746971e-001	9.695245e-001	9.302574e-001	1.301889e+000	8.270881e-001	1.126794e+000	1.135823e+000	8.650466e-001	9.842941e-001	9.850613e-001	9.086013e-001	9.434211e-001	8.851262e-001	1.014454e+000	9.712487e-001	1.126844e+000	1.012500e+000	5.771286e-001	9.893769e-001	7.927593e-001	5.765288e-001	7.396509e-001	9.833037e-001	1.115466e+000	6.249842e-001	5.781441e-001	1.054799e+000	9.837013e-001	1.120449e+000	1.066435e+000	1.103475e+000	6.814156e-001	6.323021e-001	6.906595e-001	8.039017e-001	9.859714e-001	8.339023e-001	1.085680e+000	7.601358e-001	8.885547e-001	1.087217e+000	1.125380e+000	9.862651e-001	8.562898e-001	1.188793e+000	1.137191e+000	1.130776e+000	1.169533e+000	1.253427e+000	1.212815e+000	1.339166e+000	1.341014e+000	1.102090e+000	1.200665e+000	9.718275e-001	1.142027e+000	1.120366e+000	5.961932e-001	9.567159e-001	1.113388e+000	9.886067e-001	5.762959e-001	1.113714e+000	1.326448e+000	9.025770e-001	6.010274e-001	9.712239e-001	6.556024e-001	9.803066e-001	9.999325e-001	9.572572e-001	1.031778e+000	1.071068e+000	1.121205e+000	1.058445e+000	1.130843e+000	1.136171e+000	1.118985e+000	8.844486e-001	9.780359e-001	9.756090e-001	1.130191e+000	9.177917e-001	9.270405e-001	9.351768e-001	1.079508e+000	9.008081e-001	9.017573e-001	7.807144e-001	1.020624e+000	1.090294e+000	1.107406e+000	8.744811e-001	9.177740e-001	9.629735e-001	9.775797e-001	1.132487e+000	1.126094e+000	9.825586e-001	9.804377e-001	9.060326e-001	8.949322e-001	9.685785e-001	9.734504e-001	1.003482e+000	9.872539e-001	1.153418e+000	8.007723e-001	8.444937e-001	8.483366e-001	8.409469e-001	8.205150e-001	8.142327e-001	7.928230e-001	7.867135e-001	8.083619e-001	1.338225e+000	1.244616e+000	9.076124e-001	1.109949e+000	5.769484e-001	5.797289e-001	5.820133e-001	5.846715e-001	1.095962e+000	1.077340e+000	1.007986e+000	5.880082e-001	5.918104e-001	6.063740e-001	9.986016e-001	1.042718e+000	8.557823e-001	8.713957e-001	6.725310e-001	6.638747e-001	7.497285e-001	7.710305e-001	7.819080e-001	9.980068e-001	9.449590e-001	6.530091e-001	9.962308e-001	9.919610e-001	9.912372e-001	9.844971e-001	9.867530e-001	9.941701e-001	9.963453e-001	9.962974e-001	1.009446e+000	5.768570e-001	5.667429e-001	5.766821e-001	5.765203e-001	5.760493e-001	5.762586e-001	5.764488e-001	5.764048e-001	7.000634e-001	7.098467e-001	7.197489e-001	7.297737e-001	1.047479e+000	9.291749e-001	9.537557e-001	9.698075e-001	9.691395e-001	9.426579e-001	9.498635e-001	1.212873e+000	9.814463e-001	8.156424e-001	8.281366e-001	6.397615e-001	6.475431e-001	6.120428e-001	6.182326e-001	1.030595e+000	1.018832e+000	9.808801e-001	9.833950e-001	1.038859e+000	1.275415e+000	8.029770e-001	1.306904e+000	8.981968e-001	8.043418e-001	9.759228e-001	9.544587e-001	1.062286e+000	1.114045e+000	1.108790e+000	1.071070e+000	1.201443e+000	1.119397e+000	1.144769e+000	1.155081e+000	1.134983e+000	1.180911e+000	1.105553e+000	1.319856e+000	9.370423e-001	1.078676e+000	1.115414e+000	5.791424e-001	1.155292e+000	1.206654e+000	9.848911e-001	1.261125e+000	9.838671e-001	1.128539e+000	9.929479e-001	1.179444e+000	7.894332e-001	9.856258e-001	9.854728e-001	1.119985e+000	1.153409e+000	1.096296e+000	5.819935e-001	1.050575e+000	5.796643e-001	1.123983e+000	5.841389e-001	6.719410e-001	6.391590e-001	7.592324e-001	8.688177e-001	1.150935e+000	1.282265e+000	1.265785e+000	1.055658e+000	1.298250e+000	1.125833e+000	9.500888e-001	1.334997e+000	8.715490e-001	9.167700e-001	1.083912e+000	1.126625e+000	9.933307e-001	9.989837e-001	5.775772e-001	1.103001e+000	1.061061e+000	9.921209e-001	9.899703e-001	6.469859e-001	6.632996e-001	6.990570e-001	8.150077e-001	9.847992e-001	9.854157e-001	8.402851e-001	1.090380e+000	7.693622e-001	1.088822e+000	1.129545e+000	1.164075e+000	1.236972e+000	1.234137e+000	1.321161e+000	1.063400e+000	1.174007e+000	1.163513e+000	1.125569e+000	1.114189e+000	5.790313e-001	9.095315e-001	6.067655e-001	9.770772e-001	9.804778e-001	1.002675e+000	1.014933e+000	9.782756e-001	9.638571e-001	1.029334e+000	1.045459e+000	1.116468e+000	1.122920e+000	1.115701e+000	9.790292e-001	9.773625e-001	1.127002e+000	9.254472e-001	9.336036e-001	9.054716e-001	9.061176e-001	1.044412e+000	1.093798e+000	1.106578e+000	8.911777e-001	8.810528e-001	9.605179e-001	9.660332e-001	1.122925e+000	1.119130e+000	9.824549e-001	9.807894e-001	9.246413e-001	9.127575e-001	9.016499e-001	9.708878e-001	9.751351e-001	1.026711e+000	1.009731e+000	9.935143e-001	7.975355e-001	8.284495e-001	8.713306e-001	8.630334e-001	8.551033e-001	8.475498e-001	8.333523e-001	8.267330e-001	7.989067e-001	7.929395e-001	8.204897e-001	9.222315e-001	5.862096e-001	5.891770e-001	1.080359e+000	5.925861e-001	5.966989e-001	6.013422e-001	6.125944e-001	1.009904e+000	8.850465e-001	9.028527e-001	6.806678e-001	6.898566e-001	7.800006e-001	7.916680e-001	8.034451e-001	8.237913e-001	1.002149e+000	9.961554e-001	9.894752e-001	9.901390e-001	9.916107e-001	9.951013e-001	9.969582e-001	9.988153e-001	9.949211e-001	1.000146e+000	1.006982e+000	5.961074e-001	5.616658e-001	5.751556e-001	5.788650e-001	5.797396e-001	5.807870e-001	5.787130e-001	5.786374e-001	5.786123e-001	7.085480e-001	7.180524e-001	7.281201e-001	7.384420e-001	7.490143e-001	9.434837e-001	9.675303e-001	9.749787e-001	9.746615e-001	9.752450e-001	9.409296e-001	9.478427e-001	9.945116e-001	1.023706e+000	8.270364e-001	8.400090e-001	8.538797e-001	6.550580e-001	6.189474e-001	6.253106e-001	6.319749e-001	1.039869e+000	1.029239e+000	1.019071e+000	9.785982e-001	9.814144e-001	9.834166e-001	8.146865e-001	8.093888e-001	1.287358e+000	9.440729e-001	1.122888e+000	1.096301e+000	9.583905e-001	1.299620e+000	1.143726e+000	1.070041e+000	1.083205e+000	1.067157e+000	1.112739e+000	5.927210e-001	1.264650e+000	1.092744e+000	1.198041e+000	1.065854e+000	1.117826e+000	1.246330e+000	5.818259e-001	1.220433e+000	1.156885e+000	1.178590e+000	9.792265e-001	8.794562e-001	1.107444e+000	9.061445e-001	9.570669e-001	9.172960e-001	8.122312e-001	1.102291e+000	5.840719e-001	1.056754e+000	1.047388e+000	9.996913e-001	7.806655e-001	6.909930e-001	1.115667e+000	8.981473e-001	9.980101e-001	1.134819e+000	1.107759e+000	1.130128e+000	1.117689e+000	1.128429e+000	9.852642e-001	1.222228e+000	9.849153e-001	9.840092e-001	1.151094e+000	1.118750e+000	1.174489e+000	9.962668e-001	5.888447e-001	6.643628e-001	1.276036e+000	1.124714e+000	5.793486e-001	9.977949e-001	6.563776e-001	6.731918e-001	6.816938e-001	9.847573e-001	9.852374e-001	1.089631e+000	1.156809e+000	1.189448e+000	1.245612e+000	1.302877e+000	1.086771e+000	1.117557e+000	1.114670e+000	5.830723e-001	9.863940e-001	9.911009e-001	1.006413e+000	1.016913e+000	9.846578e-001	9.705312e-001	1.028895e+000	1.042294e+000	1.056225e+000	1.110948e+000	1.115489e+000	9.806862e-001	9.804753e-001	1.123701e+000	9.247362e-001	9.327171e-001	9.101923e-001	9.123359e-001	1.094707e+000	1.103887e+000	8.987688e-001	8.882441e-001	9.638378e-001	1.116583e+000	1.115236e+000	9.831797e-001	9.820207e-001	9.317567e-001	9.201572e-001	9.093972e-001	9.687837e-001	9.729358e-001	1.049538e+000	1.032140e+000	1.015213e+000	9.993952e-001	8.053811e-001	8.228832e-001	8.572715e-001	8.898483e-001	8.711301e-001	8.631051e-001	8.553237e-001	8.479539e-001	8.409881e-001	8.031192e-001	8.070827e-001	8.343980e-001	5.956650e-001	1.082383e+000	1.074406e+000	5.995281e-001	6.035967e-001	6.088014e-001	6.141401e-001	6.206813e-001	9.163975e-001	9.363228e-001	6.999193e-001	7.096627e-001	7.910323e-001	8.020564e-001	8.144443e-001	8.270498e-001	1.012718e+000	1.006356e+000	1.001152e+000	9.955484e-001	9.948783e-001	9.947226e-001	9.957656e-001	9.974262e-001	9.975829e-001	9.977746e-001	1.003943e+000	1.013181e+000	9.473435e-001	6.914384e-001	5.951004e-001	5.737996e-001	5.704741e-001	5.876645e-001	5.849064e-001	5.819154e-001	5.811926e-001	5.817614e-001	5.815498e-001	7.188448e-001	7.285975e-001	7.379115e-001	7.481701e-001	7.586179e-001	7.695995e-001	9.571897e-001	9.796747e-001	9.802095e-001	9.809462e-001	9.829334e-001	9.400886e-001	9.459426e-001	9.523814e-001	1.005449e+000	1.033084e+000	1.061633e+000	8.394603e-001	8.523417e-001	8.666296e-001	8.818490e-001	6.271429e-001	6.344581e-001	6.413619e-001	6.484217e-001	1.020463e+000	1.037963e+000	1.028966e+000	9.766625e-001	9.794939e-001	9.819654e-001	9.835486e-001	8.282272e-001	8.224999e-001	8.172525e-001	1.148088e+000	1.118970e+000	1.111277e+000	1.153068e+000	1.169176e+000	9.852698e-001	9.515709e-001	1.189948e+000	1.090202e+000	1.231382e+000	1.088609e+000	8.890293e-001	8.042970e-001	1.122828e+000	1.205998e+000	1.275376e+000	1.315602e+000	1.315958e+000	1.307787e+000	1.248588e+000	1.127124e+000	6.756369e-001	1.112140e+000	1.116953e+000	1.084454e+000	9.840896e-001	9.131159e-001	1.111593e+000	1.021762e+000	1.045539e+000	5.915677e-001	5.972285e-001	5.829983e-001	1.024186e+000	6.032456e-001	9.588121e-001	6.652609e-001	1.106776e+000	9.643031e-001	1.145648e+000	1.096116e+000	1.309544e+000	1.171143e+000	1.159962e+000	1.075194e+000	1.071010e+000	1.267537e+000	1.094319e+000	1.210881e+000	1.061631e+000	1.229265e+000	1.155603e+000	1.165113e+000	1.127855e+000	8.160970e-001	8.219322e-001	1.101560e+000	5.886775e-001	1.053617e+000	1.114400e+000	9.855374e-001	1.254312e+000	6.822847e-001	6.933977e-001	7.004543e-001	9.844023e-001	1.150776e+000	1.178861e+000	1.281466e+000	1.108577e+000	9.967019e-001	1.001442e+000	1.010373e+000	1.018492e+000	9.774448e-001	9.915455e-001	1.029730e+000	1.040354e+000	1.052215e+000	1.064744e+000	1.105897e+000	1.109357e+000	9.838186e-001	1.120573e+000	9.240152e-001	9.313168e-001	9.156495e-001	9.193657e-001	1.094233e+000	1.100654e+000	9.062045e-001	8.953552e-001	1.112540e+000	1.113078e+000	9.846055e-001	9.390666e-001	9.270077e-001	9.189260e-001	9.687897e-001	1.054041e+000	1.037210e+000	1.020775e+000	1.006044e+000	8.184471e-001	8.238183e-001	8.474029e-001	8.771434e-001	8.998223e-001	8.788657e-001	8.724366e-001	8.626129e-001	8.569587e-001	8.482308e-001	1.083740e+000	1.076869e+000	1.069485e+000	6.063442e-001	6.123635e-001	6.160465e-001	6.234445e-001	6.281120e-001	9.297821e-001	9.497323e-001	7.121011e-001	7.194952e-001	8.118999e-001	8.255803e-001	8.393975e-001	1.015925e+000	1.009445e+000	1.005838e+000	1.001666e+000	1.000287e+000	9.982042e-001	9.983186e-001	9.984131e-001	9.967458e-001	9.985495e-001	9.055604e-001	6.062811e-001	5.781219e-001	5.840892e-001	5.859377e-001	7.314744e-001	7.387542e-001	7.507121e-001	7.578611e-001	7.702411e-001	7.811061e-001	7.924919e-001	9.704584e-001	9.916357e-001	9.861772e-001	9.873979e-001	9.918835e-001	9.394496e-001	9.479304e-001	1.014902e+000	1.041161e+000	1.067137e+000	8.527871e-001	8.660107e-001	8.800116e-001	8.962406e-001	9.127164e-001	6.366808e-001	6.422302e-001	6.515128e-001	6.594726e-001	1.037646e+000	1.029619e+000	9.762729e-001	9.814003e-001	8.433531e-001	8.355085e-001	8.315840e-001	8.248139e-001	1.149677e+000	1.140219e+000	1.181534e+000	1.285365e+000	1.171158e+000	1.108368e+000	1.101071e+000	1.234994e+000	1.065317e+000	1.130344e+000	1.111938e+000	1.263056e+000	1.090102e+000	1.162953e+000	6.808427e-001	1.152885e+000	1.144724e+000	1.213333e+000	1.144283e+000	1.106742e+000	9.545591e-001	1.095918e+000	8.308241e-001	1.085104e+000	1.073129e+000	9.786497e-001	9.587327e-001	8.924465e-001	1.232849e+000	9.202460e-001	9.853986e-001	9.723072e-001	8.310287e-001	1.084535e+000	1.025982e+000	1.254334e+000	1.120014e+000	1.104644e+000	1.148700e+000	1.090273e+000	1.312687e+000	1.248844e+000	1.114436e+000	9.866129e-001	6.098806e-001	6.172446e-001	1.105993e+000	1.158018e+000	1.120795e+000	1.288572e+000	1.164433e+000	1.074134e+000	1.217295e+000	1.199785e+000	5.968141e-001	1.107941e+000	1.058717e+000	1.051211e+000	6.021899e-001	6.981872e-001	7.170089e-001	9.862563e-001	1.168995e+000	1.192318e+000	1.126654e+000	1.009321e+000	1.024712e+000	9.981725e-001	1.043538e+000	1.060223e+000	1.101639e+000	1.117796e+000	9.273217e-001	1.092700e+000	1.097481e+000	9.088541e-001	1.109928e+000	9.868064e-001	9.876046e-001	9.414661e-001	9.261966e-001	9.642607e-001	1.058065e+000	1.040967e+000	1.025358e+000	1.014405e+000	8.389479e-001	8.754459e-001	9.086998e-001	8.757920e-001	8.606995e-001	1.078500e+000	1.072158e+000	6.282954e-001	6.411342e-001	9.615381e-001	7.365664e-001	8.511625e-001	9.942529e-001	1.014699e+000	1.006422e+000	1.001594e+000	1.000279e+000	9.980588e-001	1.011169e+000	1.007873e+000	7.455149e-001	5.928595e-001	5.763802e-001	5.881628e-001	5.891007e-001	5.918871e-001	7.563979e-001	7.757943e-001	7.940095e-001	8.024846e-001	8.164603e-001	9.828355e-001	1.002980e+000	9.899397e-001	9.937585e-001	1.001061e+000	9.370549e-001	9.456032e-001	1.023658e+000	1.047333e+000	1.071645e+000	1.095291e+000	8.664952e-001	8.801724e-001	8.939794e-001	9.097137e-001	9.289558e-001	9.417065e-001	6.552920e-001	6.694483e-001	1.044245e+000	1.037128e+000	9.725970e-001	9.827380e-001	9.851824e-001	8.476173e-001	8.368064e-001	1.110266e+000	1.152540e+000	1.147073e+000	1.126063e+000	1.038438e+000	1.100924e+000	1.150383e+000	1.126987e+000	1.189173e+000	1.140469e+000	1.135540e+000	1.121318e+000	1.160043e+000	1.234722e+000	1.245243e+000	1.073973e+000	9.888912e-001	6.904775e-001	1.116763e+000	1.053548e+000	1.107153e+000	9.642228e-001	1.139156e+000	1.173290e+000	9.181212e-001	1.085302e+000	9.806519e-001	9.603650e-001	1.103726e+000	1.106112e+000	1.091135e+000	1.077085e+000	1.148451e+000	1.090467e+000	1.095510e+000	1.062209e+000	7.241342e-001	6.006063e-001	9.863412e-001	1.004164e+000	1.136322e+000	1.140478e+000	1.293214e+000	1.101184e+000	1.068000e+000	1.166617e+000	1.108498e+000	1.217510e+000	1.156641e+000	9.515331e-001	1.231791e+000	9.944141e-001	9.790034e-001	1.085219e+000	1.265552e+000	1.098329e+000	1.111169e+000	9.877583e-001	1.268315e+000	1.164948e+000	1.019191e+000	1.218179e+000	1.204181e+000	6.