# vtk DataFile Version 3.0
vtk output
ASCII
DATASET UNSTRUCTURED_GRID
POINTS 5233 float
9.997500e-001	-3.633504e-005	0.0	9.990000e-001	-1.456374e-004	0.0	9.977600e-001	-3.293158e-004	0.0	9.960200e-001	-5.996778e-004	0.0	9.937800e-001	-9.822480e-004	0.0	9.910500e-001	-1.518941e-003	0.0	9.878400e-001	-2.264651e-003	0.0	9.841300e-001	-3.280645e-003	0.0	9.799500e-001	-4.590730e-003	0.0	9.752800e-001	-6.185643e-003	0.0	9.701500e-001	-7.983197e-003	0.0	9.645400e-001	-9.874107e-003	0.0	9.584700e-001	-1.172305e-002	0.0	9.519400e-001	-1.342708e-002	0.0	9.449600e-001	-1.493244e-002	0.0	9.375400e-001	-1.624238e-002	0.0	9.296900e-001	-1.740085e-002	0.0	9.214000e-001	-1.846904e-002	0.0	9.127000e-001	-1.949489e-002	0.0	9.035800e-001	-2.051130e-002	0.0	8.940600e-001	-2.152642e-002	0.0	8.841500e-001	-2.253454e-002	0.0	8.738500e-001	-2.352439e-002	0.0	8.631800e-001	-2.448322e-002	0.0	8.521600e-001	-2.540306e-002	0.0	8.407700e-001	-2.628476e-002	0.0	8.290500e-001	-2.712907e-002	0.0	8.170100e-001	-2.794232e-002	0.0	8.046400e-001	-2.873322e-002	0.0	7.919700e-001	-2.950762e-002	0.0	7.790100e-001	-3.027154e-002	0.0	7.657800e-001	-3.102877e-002	0.0	7.522800e-001	-3.178242e-002	0.0	7.385200e-001	-3.253340e-002	0.0	7.245300e-001	-3.328018e-002	0.0	7.103200e-001	-3.402134e-002	0.0	6.958900e-001	-3.475532e-002	0.0	6.812700e-001	-3.547876e-002	0.0	6.664700e-001	-3.618940e-002	0.0	6.515000e-001	-3.688521e-002	0.0	6.363800e-001	-3.756419e-002	0.0	6.211300e-001	-3.822492e-002	0.0	6.057600e-001	-3.886699e-002	0.0	5.902800e-001	-3.949053e-002	0.0	5.747100e-001	-4.009573e-002	0.0	5.590600e-001	-4.068352e-002	0.0	5.433600e-001	-4.125436e-002	0.0	5.276100e-001	-4.180991e-002	0.0	5.118400e-001	-4.235078e-002	0.0	4.960500e-001	-4.287847e-002	0.0	4.802700e-001	-4.339326e-002	0.0	4.645100e-001	-4.389584e-002	0.0	4.487800e-001	-4.438650e-002	0.0	4.331100e-001	-4.486454e-002	0.0	4.175000e-001	-4.532976e-002	0.0	4.019700e-001	-4.578089e-002	0.0	3.865400e-001	-4.621626e-002	0.0	3.712300e-001	-4.663376e-002	0.0	3.560400e-001	-4.703144e-002	0.0	3.409900e-001	-4.740640e-002	0.0	3.261100e-001	-4.775518e-002	0.0	3.114000e-001	-4.807475e-002	0.0	2.968700e-001	-4.836153e-002	0.0	2.825500e-001	-4.861134e-002	0.0	2.684500e-001	-4.882024e-002	0.0	2.545700e-001	-4.898421e-002	0.0	2.409400e-001	-4.909872e-002	0.0	2.275700e-001	-4.915945e-002	0.0	2.144700e-001	-4.916196e-002	0.0	2.016600e-001	-4.910175e-002	0.0	1.891400e-001	-4.897421e-002	0.0	1.769300e-001	-4.877475e-002	0.0	1.650400e-001	-4.849868e-002	0.0	1.534900e-001	-4.814157e-002	0.0	1.422900e-001	-4.769881e-002	0.0	1.314400e-001	-4.716523e-002	0.0	1.209500e-001	-4.653583e-002	0.0	1.108500e-001	-4.580714e-002	0.0	1.011300e-001	-4.497306e-002	0.0	9.181000e-002	-4.402970e-002	0.0	8.290000e-002	-4.297268e-002	0.0	7.440000e-002	-4.179641e-002	0.0	6.633000e-002	-4.049821e-002	0.0	5.869000e-002	-3.907284e-002	0.0	5.149000e-002	-3.751688e-002	0.0	4.474000e-002	-3.582764e-002	0.0	3.844000e-002	-3.400036e-002	0.0	3.260000e-002	-3.203331e-002	0.0	2.723000e-002	-2.992624e-002	0.0	2.232000e-002	-2.767105e-002	0.0	1.790000e-002	-2.527913e-002	0.0	1.395000e-002	-2.273803e-002	0.0	1.049000e-002	-2.005912e-002	0.0	7.520000e-003	-1.724502e-002	0.0	5.040000e-003	-1.429981e-002	0.0	3.050000e-003	-1.122915e-002	0.0	1.560000e-003	-8.064647e-003	0.0	5.600000e-004	-4.807833e-003	0.0	6.000000e-005	-1.528352e-003	0.0	0.000000e+000	0.000000e+000	0.0	6.000000e-005	1.448350e-003	0.0	5.600000e-004	4.500588e-003	0.0	1.560000e-003	7.546564e-003	0.0	3.050000e-003	1.054944e-002	0.0	5.040000e-003	1.352034e-002	0.0	7.520000e-003	1.643602e-002	0.0	1.049000e-002	1.929506e-002	0.0	1.395000e-002	2.209595e-002	0.0	1.790000e-002	2.483748e-002	0.0	2.232000e-002	2.750730e-002	0.0	2.723000e-002	3.011838e-002	0.0	3.260000e-002	3.265559e-002	0.0	3.844000e-002	3.512530e-002	0.0	4.474000e-002	3.752370e-002	0.0	5.149000e-002	3.984762e-002	0.0	5.869000e-002	4.209710e-002	0.0	6.633000e-002	4.426848e-002	0.0	7.440000e-002	4.635824e-002	0.0	8.290000e-002	4.836510e-002	0.0	9.181000e-002	5.028287e-002	0.0	1.011300e-001	5.210985e-002	0.0	1.108500e-001	5.384195e-002	0.0	1.209500e-001	5.547362e-002	0.0	1.314400e-001	5.700414e-002	0.0	1.422900e-001	5.842680e-002	0.0	1.534900e-001	5.973845e-002	0.0	1.650400e-001	6.093711e-002	0.0	1.769300e-001	6.201977e-002	0.0	1.891400e-001	6.298304e-002	0.0	2.016600e-001	6.382505e-002	0.0	2.144700e-001	6.454388e-002	0.0	2.275700e-001	6.513933e-002	0.0	2.409400e-001	6.561069e-002	0.0	2.545700e-001	6.595841e-002	0.0	2.684500e-001	6.618348e-002	0.0	2.825500e-001	6.628738e-002	0.0	2.968700e-001	6.627262e-002	0.0	3.114000e-001	6.614199e-002	0.0	3.261100e-001	6.589916e-002	0.0	3.409900e-001	6.554814e-002	0.0	3.560400e-001	6.509293e-002	0.0	3.712300e-001	6.453862e-002	0.0	3.865400e-001	6.389042e-002	0.0	4.019700e-001	6.315270e-002	0.0	4.175000e-001	6.233058e-002	0.0	4.331100e-001	6.142907e-002	0.0	4.487800e-001	6.045296e-002	0.0	4.645100e-001	5.940532e-002	0.0	4.802700e-001	5.829062e-002	0.0	4.960500e-001	5.711144e-002	0.0	5.118400e-001	5.586963e-002	0.0	5.276100e-001	5.456803e-002	0.0	5.433600e-001	5.320647e-002	0.0	5.590600e-001	5.178682e-002	0.0	5.747100e-001	5.030797e-002	0.0	5.902800e-001	4.877144e-002	0.0	6.057600e-001	4.717697e-002	0.0	6.211300e-001	4.552568e-002	0.0	6.363800e-001	4.381824e-002	0.0	6.515000e-001	4.205612e-002	0.0	6.664700e-001	4.024301e-002	0.0	6.812700e-001	3.838396e-002	0.0	6.958900e-001	3.648412e-002	0.0	7.103200e-001	3.454988e-002	0.0	7.245300e-001	3.259155e-002	0.0	7.385200e-001	3.061634e-002	0.0	7.522800e-001	2.863348e-002	0.0	7.657800e-001	2.665550e-002	0.0	7.790100e-001	2.469216e-002	0.0	7.919700e-001	2.275162e-002	0.0	8.046400e-001	2.084469e-002	0.0	8.170100e-001	1.898033e-002	0.0	8.290500e-001	1.716990e-002	0.0	8.407700e-001	1.541784e-002	0.0	8.521600e-001	1.373005e-002	0.0	8.631800e-001	1.211432e-002	0.0	8.738500e-001	1.056625e-002	0.0	8.841500e-001	9.083627e-003	0.0	8.940600e-001	7.661798e-003	0.0	9.035800e-001	6.294537e-003	0.0	9.127000e-001	4.984667e-003	0.0	9.214000e-001	3.751497e-003	0.0	9.296900e-001	2.630452e-003	0.0	9.375400e-001	1.681102e-003	0.0	9.449600e-001	9.645655e-004	0.0	9.519400e-001	5.300532e-004	0.0	9.584700e-001	3.876063e-004	0.0	9.645400e-001	4.927499e-004	0.0	9.701500e-001	7.513943e-004	0.0	9.752800e-001	1.043905e-003	0.0	9.799500e-001	1.263965e-003	0.0	9.841300e-001	1.344318e-003	0.0	9.878400e-001	1.272523e-003	0.0	9.910500e-001	1.080986e-003	0.0	9.937800e-001	8.234065e-004	0.0	9.960200e-001	5.556433e-004	0.0	9.977600e-001	3.211520e-004	0.0	9.990000e-001	1.448925e-004	0.0	9.997500e-001	3.632324e-005	0.0	1.000000e+000	0.000000e+000	0.0	1.984229e+001	2.506660e+000	0.0	1.937166e+001	4.973800e+000	0.0	1.859553e+001	7.362490e+000	0.0	1.752613e+001	9.635070e+000	0.0	1.618034e+001	1.175571e+001	0.0	1.457937e+001	1.369094e+001	0.0	1.274848e+001	1.541027e+001	0.0	1.071654e+001	1.688656e+001	0.0	8.515590e+000	1.809654e+001	0.0	6.180340e+000	1.902113e+001	0.0	3.747630e+000	1.964575e+001	0.0	1.255810e+000	1.996053e+001	0.0	-1.255810e+000	1.996053e+001	0.0	-3.747630e+000	1.964574e+001	0.0	-6.180340e+000	1.902113e+001	0.0	-8.515590e+000	1.809654e+001	0.0	-1.071654e+001	1.688656e+001	0.0	-1.274848e+001	1.541026e+001	0.0	-1.457937e+001	1.369094e+001	0.0	-1.618034e+001	1.175570e+001	0.0	-1.752613e+001	9.635070e+000	0.0	-1.859553e+001	7.362490e+000	0.0	-1.937166e+001	4.973800e+000	0.0	-1.984229e+001	2.506660e+000	0.0	-2.000000e+001	0.000000e+000	0.0	-1.984229e+001	-2.506670e+000	0.0	-1.937166e+001	-4.973800e+000	0.0	-1.859553e+001	-7.362490e+000	0.0	-1.752613e+001	-9.635080e+000	0.0	-1.618034e+001	-1.175571e+001	0.0	-1.457937e+001	-1.369094e+001	0.0	-1.274848e+001	-1.541027e+001	0.0	-1.071653e+001	-1.688656e+001	0.0	-8.515580e+000	-1.809654e+001	0.0	-6.180340e+000	-1.902113e+001	0.0	-3.747620e+000	-1.964575e+001	0.0	-1.255810e+000	-1.996053e+001	0.0	1.255810e+000	-1.996053e+001	0.0	3.747630e+000	-1.964574e+001	0.0	6.180340e+000	-1.902113e+001	0.0	8.515590e+000	-1.809654e+001	0.0	1.071654e+001	-1.688656e+001	0.0	1.274848e+001	-1.541026e+001	0.0	1.457937e+001	-1.369094e+001	0.0	1.618034e+001	-1.175570e+001	0.0	1.752614e+001	-9.635070e+000	0.0	1.859553e+001	-7.362490e+000	0.0	1.937166e+001	-4.973790e+000	0.0	1.984229e+001	-2.506660e+000	0.0	2.000000e+001	0.000000e+000	0.0	6.095305e-002	-4.677123e-002	0.0	6.598155e-001	-5.033975e-002	0.0	4.260885e-001	7.615438e-002	0.0	6.901759e-001	5.071451e-002	0.0	3.793413e-001	-6.066805e-002	0.0	9.994680e-001	-7.278498e-004	0.0	9.985564e-001	-1.335932e-003	0.0	7.734035e-001	-4.283690e-002	0.0	6.894549e-001	-4.860691e-002	0.0	-1.702644e-003	6.942234e-003	0.0	7.463563e-001	-4.484589e-002	0.0	5.838741e-001	6.372056e-002	0.0	9.928403e-001	-3.834251e-003	0.0	9.899769e-001	-4.939252e-003	0.0	5.994371e-001	6.206216e-002	0.0	7.183426e-001	-4.676843e-002	0.0	-1.756095e-003	7.720344e-004	0.0	9.866359e-001	-6.258831e-003	0.0	9.828224e-001	-7.806042e-003	0.0	-1.708029e-003	-7.354393e-003	0.0	6.447534e-001	-5.116362e-002	0.0	8.241578e-001	-3.853781e-002	0.0	7.993656e-001	-4.075221e-002	0.0	3.488762e-001	7.907049e-002	0.0	8.476431e-001	-3.617627e-002	0.0	2.474055e-001	7.823448e-002	0.0	8.697582e-001	-3.363010e-002	0.0	9.660406e-003	2.383246e-002	0.0	8.903939e-001	-3.091210e-002	0.0	7.731735e-002	-5.020914e-002	0.0	9.094730e-001	-2.806314e-002	0.0	-2.151263e-003	-3.622155e-003	0.0	9.426106e-001	-2.175473e-002	0.0	9.269094e-001	-2.506535e-002	0.0	1.781373e-002	-3.038057e-002	0.0	4.258581e-001	-5.959413e-002	0.0	8.588811e-001	-3.492449e-002	0.0	9.565010e-001	-1.792815e-002	0.0	9.785262e-001	-9.603622e-003	0.0	9.684901e-001	-1.368503e-002	0.0	1.587719e-001	-5.907561e-002	0.0	9.001354e-001	-2.950254e-002	0.0	7.600106e-001	-4.385131e-002	0.0	9.971418e-001	-2.103983e-003	0.0	5.987787e-001	-5.345097e-002	0.0	4.415267e-001	-5.917394e-002	0.0	5.361874e-001	-5.606834e-002	0.0	4.730297e-001	-5.824836e-002	0.0	5.046191e-001	-5.721227e-002	0.0	4.888131e-001	-5.774302e-002	0.0	1.254055e-001	-5.658886e-002	0.0	2.780997e-002	-3.579291e-002	0.0	3.947532e-001	-6.034331e-002	0.0	4.633585e-002	-4.280
[...]
POINT_DATA 5233

SCALARS Density float 1
LOOKUP_TABLE default
1.191222e+000	1.173652e+000	1.167606e+000	1.165542e+000	1.164945e+000	1.163186e+000	1.156827e+000	1.143427e+000	1.120802e+000	1.088147e+000	1.046584e+000	9.976165e-001	9.444890e-001	9.011461e-001	8.800913e-001	8.792548e-001	8.891585e-001	9.011429e-001	9.098883e-001	9.139430e-001	9.143314e-001	9.128084e-001	9.111015e-001	9.103618e-001	9.110907e-001	9.131392e-001	9.160950e-001	9.194333e-001	9.227027e-001	9.255889e-001	9.279249e-001	9.296506e-001	9.307923e-001	9.313931e-001	9.315705e-001	9.314247e-001	9.310726e-001	9.306164e-001	9.301322e-001	9.296937e-001	9.293326e-001	9.290778e-001	9.289189e-001	9.288464e-001	9.288240e-001	9.288210e-001	9.287946e-001	9.287072e-001	9.285143e-001	9.281738e-001	9.276434e-001	9.269010e-001	9.259284e-001	9.247166e-001	9.232375e-001	9.214633e-001	9.193800e-001	9.171075e-001	9.149046e-001	9.129262e-001	9.107392e-001	9.074557e-001	9.037218e-001	9.037371e-001	9.119714e-001	9.210518e-001	9.050725e-001	8.356683e-001	7.548285e-001	7.232399e-001	7.245851e-001	7.289878e-001	7.299357e-001	7.291660e-001	7.293418e-001	7.311566e-001	7.343160e-001	7.384201e-001	7.431984e-001	7.489087e-001	7.559352e-001	7.645015e-001	7.749216e-001	7.874032e-001	8.023913e-001	8.204135e-001	8.418078e-001	8.670548e-001	8.968845e-001	9.319518e-001	9.730964e-001	1.020598e+000	1.073836e+000	1.131640e+000	1.191506e+000	1.249755e+000	1.298240e+000	1.338969e+000	1.353252e+000	1.350147e+000	1.349453e+000	1.329843e+000	1.283283e+000	1.235039e+000	1.182040e+000	1.130585e+000	1.083154e+000	1.040817e+000	1.003544e+000	9.711900e-001	9.431186e-001	9.184982e-001	8.968371e-001	8.775368e-001	8.601754e-001	8.444425e-001	8.299245e-001	8.163004e-001	8.034879e-001	7.914035e-001	7.800429e-001	7.692872e-001	7.588540e-001	7.484715e-001	7.381780e-001	7.282974e-001	7.191574e-001	7.105655e-001	7.021730e-001	6.937812e-001	6.856060e-001	6.779027e-001	6.708463e-001	6.643669e-001	6.583909e-001	6.527921e-001	6.475037e-001	6.425259e-001	6.377750e-001	6.332969e-001	6.291473e-001	6.255013e-001	6.224254e-001	6.197370e-001	6.171645e-001	6.146370e-001	6.121397e-001	6.097850e-001	6.074919e-001	6.063121e-001	6.063302e-001	6.057876e-001	6.019903e-001	6.042124e-001	7.050358e-001	9.168716e-001	9.984081e-001	9.908093e-001	9.814977e-001	9.831895e-001	9.860235e-001	9.882968e-001	9.916715e-001	9.959744e-001	1.000857e+000	1.006119e+000	1.011717e+000	1.017517e+000	1.023424e+000	1.029403e+000	1.035354e+000	1.041234e+000	1.046997e+000	1.052563e+000	1.057936e+000	1.063088e+000	1.068133e+000	1.073287e+000	1.078921e+000	1.085502e+000	1.093389e+000	1.102624e+000	1.112587e+000	1.122062e+000	1.129375e+000	1.132746e+000	1.130588e+000	1.121978e+000	1.107148e+000	1.088354e+000	1.070112e+000	1.057595e+000	1.055172e+000	1.063783e+000	1.080156e+000	1.100002e+000	1.120313e+000	1.141217e+000	1.161290e+000	1.160036e+000	9.991027e-001	9.997940e-001	9.998909e-001	9.998204e-001	9.997859e-001	9.997392e-001	9.996788e-001	9.995985e-001	9.995076e-001	9.994453e-001	9.994162e-001	9.994656e-001	9.995777e-001	9.997732e-001	9.999334e-001	1.000057e+000	1.000123e+000	1.000160e+000	1.000178e+000	1.000185e+000	1.000186e+000	1.000185e+000	1.000183e+000	1.000186e+000	1.000188e+000	1.000193e+000	1.000204e+000	1.000219e+000	1.000240e+000	1.000270e+000	1.000303e+000	1.000355e+000	1.000401e+000	1.000475e+000	1.000534e+000	1.000592e+000	1.000640e+000	1.000636e+000	1.000618e+000	1.000560e+000	1.000505e+000	1.000431e+000	1.000362e+000	1.000292e+000	1.000231e+000	1.000146e+000	1.000075e+000	1.000117e+000	9.994909e-001	9.986388e-001	8.031364e-001	9.313947e-001	6.199855e-001	9.924868e-001	9.194907e-001	1.172869e+000	1.167272e+000	9.303682e-001	9.322574e-001	1.312233e+000	9.324493e-001	8.259544e-001	1.154605e+000	1.148837e+000	1.002255e+000	9.328382e-001	1.347323e+000	1.138815e+000	1.122670e+000	1.320803e+000	9.310132e-001	9.207038e-001	9.262596e-001	6.370780e-001	9.158896e-001	6.762200e-001	9.148945e-001	1.096464e+000	9.176372e-001	7.776880e-001	9.168907e-001	1.345923e+000	8.963145e-001	9.047724e-001	9.946641e-001	9.251186e-001	9.147755e-001	9.421668e-001	1.099214e+000	1.030989e+000	7.363390e-001	9.183568e-001	9.316505e-001	1.161284e+000	9.303359e-001	9.264315e-001	9.300053e-001	9.283823e-001	9.295098e-001	9.290433e-001	7.425995e-001	9.190374e-001	9.216468e-001	8.389043e-001	9.235347e-001	9.109401e-001	9.153876e-001	8.883039e-001	9.042326e-001	8.973150e-001	7.368001e-001	7.278731e-001	7.679951e-001	7.532003e-001	9.301853e-001	7.363695e-001	9.304829e-001	9.160752e-001	9.543422e-001	1.158116e+000	1.140324e+000	1.019927e+000	9.122853e-001	9.098346e-001	1.068382e+000	1.275759e+000	9.179990e-001	9.274003e-001	9.301183e-001	9.328087e-001	9.285592e-001	7.474245e-001	7.859384e-001	9.302490e-001	9.318287e-001	8.195416e-001	1.192568e+000	1.039630e+000	9.173048e-001	7.333921e-001	1.201519e+000	8.826140e-001	7.599647e-001	9.069063e-001	9.226715e-001	9.275157e-001	9.326236e-001	1.340659e+000	1.286752e+000	6.061940e-001	1.348698e+000	9.589602e-001	8.724331e-001	9.109034e-001	7.771328e-001	6.227760e-001	1.113443e+000	6.099565e-001	6.122973e-001	1.095340e+000	1.116892e+000	1.076006e+000	6.102967e-001	6.172964e-001	6.290064e-001	1.104454e+000	1.088774e+000	8.260981e-001	1.082254e+000	1.121678e+000	1.118455e+000	8.001106e-001	8.558051e-001	6.575901e-001	6.695990e-001	7.255981e-001	6.467932e-001	6.147436e-001	6.257456e-001	7.447873e-001	7.661776e-001	9.852765e-001	7.080269e-001	6.911434e-001	9.878347e-001	6.188711e-001	1.010640e+000	1.000614e+000	1.033082e+000	1.021676e+000	1.055187e+000	1.044388e+000	1.081996e+000	1.065450e+000	1.121979e+000	1.096384e+000	1.107722e+000	1.060352e+000	1.070583e+000	1.038773e+000	1.049855e+000	1.016070e+000	1.027381e+000	9.961849e-001	1.005430e+000	9.849055e-001	9.897946e-001	6.015785e-001	9.985666e-001	6.994397e-001	6.834132e-001	7.348784e-001	7.167673e-001	8.906574e-001	7.553565e-001	1.056187e+000	9.335515e-001	7.321543e-001	1.186016e+000	9.869879e-001	9.235719e-001	9.135867e-001	9.298179e-001	1.232713e+000	9.875803e-001	1.140056e+000	8.126747e-001	8.404210e-001	6.634067e-001	7.883407e-001	1.071986e+000	1.067794e+000	6.520624e-001	1.071468e+000	1.081871e+000	6.418257e-001	6.327728e-001	1.112197e+000	1.174396e+000	1.131366e+000	1.147921e+000	9.307032e-001	8.616983e-001	1.096667e+000	6.093284e-001	1.243035e+000	1.088717e+000	7.892937e-001	7.389102e-001	9.090097e-001	8.516840e-001	1.291537e+000	1.322022e+000	9.078645e-001	9.339545e-001	9.204908e-001	1.137698e+000	7.040077e-001	9.335941e-001	9.312283e-001	1.133044e+000	9.141627e-001	9.197850e-001	9.228078e-001	7.820865e-001	1.299043e+000	7.612486e-001	1.049035e+000	9.817731e-001	7.461903e-001	9.341938e-001	9.328126e-001	9.281298e-001	7.928592e-001	9.219315e-001	9.225869e-001	9.294661e-001	1.138878e+000	1.029832e+000	9.913312e-001	1.052442e+000	7.979438e-001	9.934733e-001	7.431157e-001	1.067677e+000	1.078722e+000	6.469593e-001	6.143568e-001	1.113056e+000	1.072894e+000	1.084044e+000	1.111124e+000	1.082607e+000	6.905711e-001	6.522946e-001	6.983758e-001	8.101126e-001	9.332054e-001	7.347410e-001	1.099954e+000	7.634509e-001	9.034864e-001	1.098713e+000	1.093893e+000	1.078360e+000	7.446178e-001	1.188895e+000	1.120360e+000	1.106277e+000	1.179091e+000	1.258376e+000	1.183039e+000	1.341464e+000	1.342483e+000	1.008146e+000	1.200945e+000	8.203968e-001	1.157830e+000	1.147955e+000	6.267708e-001	9.314070e-001	1.120229e+000	9.202981e-001	9.652230e-001	1.141999e+000	1.327464e+000	9.269498e-001	6.301543e-001	9.209376e-001	6.698457e-001	9.195873e-001	9.215788e-001	8.055534e-001	9.224644e-001	9.167920e-001	9.237482e-001	9.373336e-001	9.475733e-001	1.017840e+000	1.102207e+000	7.525424e-001	9.335309e-001	9.326091e-001	1.152840e+000	9.291059e-001	9.298914e-001	9.304765e-001	9.710093e-001	9.238768e-001	9.255527e-001	9.160127e-001	8.808503e-001	9.131076e-001	9.134935e-001	7.486174e-001	7.728348e-001	9.315581e-001	9.319841e-001	1.050471e+000	1.078870e+000	9.342583e-001	9.340793e-001	7.649711e-001	7.581806e-001	9.316903e-001	9.318167e-001	8.578807e-001	8.377765e-001	1.092390e+000	9.177727e-001	9.198068e-001	7.427977e-001	7.371423e-001	8.410541e-001	9.120574e-001	9.081251e-001	9.114177e-001	9.256093e-001	1.338977e+000	1.227352e+000	9.238637e-001	1.078154e+000	6.129386e-001	6.145684e-001	6.162277e-001	6.182548e-001	1.090184e+000	1.106147e+000	1.097011e+000	6.208290e-001	6.236388e-001	6.338730e-001	1.090534e+000	1.112014e+000	8.675664e-001	8.847999e-001	6.832644e-001	6.763223e-001	7.529891e-001	7.747015e-001	7.862245e-001	1.030972e+000	1.009889e+000	1.005057e+000	1.025578e+000	1.047170e+000	1.084234e+000	1.062619e+000	1.057516e+000	1.041892e+000	1.036493e+000	1.020185e+000	1.014893e+000	1.000690e+000	9.966321e-001	9.902062e-001	9.872917e-001	6.088004e-001	5.990979e-001	9.891877e-001	1.004362e+000	7.065264e-001	7.152377e-001	7.242861e-001	7.336648e-001	1.063569e+000	9.464156e-001	9.715728e-001	9.273732e-001	9.250675e-001	9.309017e-001	9.311935e-001	1.219973e+000	9.993371e-001	8.230231e-001	8.368452e-001	6.578157e-001	6.636675e-001	6.378097e-001	6.421389e-001	1.108499e+000	1.103229e+000	9.321924e-001	9.324778e-001	9.072059e-001	1.267165e+000	9.151811e-001	1.306034e+000	9.242043e-001	9.105666e-001	9.325803e-001	9.326571e-001	9.269677e-001	1.087131e+000	1.084020e+000	1.102550e+000	1.208827e+000	1.093978e+000	1.134070e+000	1.153673e+000	1.148443e+000	1.180387e+000	1.021123e+000	1.320857e+000	7.968335e-001	9.261515e-001	1.129025e+000	6.337108e-001	1.165612e+000	1.176068e+000	9.357271e-001	1.249435e+000	9.358731e-001	1.057847e+000	9.249822e-001	1.136393e+000	9.167722e-001	9.245139e-001	9.354550e-001	1.137055e+000	1.096852e+000	1.087775e+000	6.164648e-001	1.105455e+000	9.932069e-001	1.102950e+000	6.205957e-001	6.836950e-001	6.582618e-001	7.627169e-001	8.799330e-001	1.145946e+000	1.276265e+000	1.269903e+000	1.069980e+000	1.300811e+000	1.011503e+000	8.087369e-001	1.336713e+000	7.554482e-001	9.297658e-001	9.868054e-001	1.137841e+000	1.049868e+000	1.029299e+000	9.950182e-001	1.084358e+000	1.105065e+000	1.074588e+000	1.069531e+000	6.641428e-001	6.767758e-001	7.064757e-001	8.212466e-001	9.347267e-001	9.351021e-001	7.499939e-001	1.103289e+000	7.729257e-001	1.092872e+000	1.112341e+000	1.173401e+000	1.242634e+000	1.214275e+000	1.323164e+000	9.545788e-001	1.174925e+000	1.167667e+000	1.039641e+000	1.118664e+000	8.640543e-001	9.287065e-001	6.350109e-001	9.258193e-001	9.248055e-001	9.261139e-001	9.273137e-001	8.380867e-001	8.223875e-001	9.281177e-001	9.279934e-001	9.552176e-001	9.818800e-001	1.104925e+000	9.348609e-001	9.338760e-001	1.142460e+000	9.306581e-001	9.313805e-001	9.259726e-001	9.274438e-001	9.256062e-001	9.281590e-001	9.369320e-001	7.636060e-001	7.591070e-001	9.329075e-001	9.331127e-001	1.065076e+000	1.086930e+000	9.358256e-001	9.355040e-001	7.866290e-001	7.772845e-001	7.692865e-001	9.333118e-001	9.335153e-001	9.000307e-001	8.769463e-001	8.562264e-001	9.183838e-001	9.202096e-001	9.222206e-001	7.525708e-001	7.490336e-001	7.438680e-001	7.994363e-001	8.812264e-001	9.122979e-001	9.148734e-001	9.224844e-001	9.369705e-001	6.211839e-001	6.230221e-001	1.098210e+000	6.252452e-001	6.280321e-001	6.312261e-001	6.391215e-001	1.090685e+000	8.974807e-001	9.165309e-001	6.908506e-001	6.985712e-001	7.838542e-001	7.960852e-001	8.086843e-001	1.009547e+000	1.085304e+000	1.079834e+000	1.064536e+000	1.059690e+000	1.054848e+000	1.044752e+000	1.039599e+000	1.034496e+000	1.024131e+000	1.019194e+000	1.014141e+000	1.004979e+000	1.001011e+000	9.973476e-001	9.918015e-001	5.985722e-001	6.137708e-001	9.884664e-001	9.960249e-001	1.002272e+000	7.148134e-001	7.233488e-001	7.326212e-001	7.423760e-001	7.526099e-001	9.589626e-001	9.833718e-001	9.309972e-001	9.291903e-001	9.273596e-001	9.319243e-001	9.323457e-001	1.010315e+000	1.039021e+000	8.343710e-001	8.485206e-001	8.636616e-001	6.703314e-001	6.436483e-001	6.482083e-001	6.529929e-001	1.103796e+000	1.100440e+000	1.095948e+000	9.337533e-001	9.340326e-001	9.343609e-001	9.226310e-001	9.138083e-001	1.283966e+000	8.125491e-001	1.107382e+000	1.087879e+000	9.340317e-001	1.301542e+000	1.152945e+000	9.376103e-001	9.413757e-001	9.699333e-001	1.093590e+000	6.276324e-001	1.255972e+000	1.104288e+000	1.167008e+000	1.098156e+000	1.099782e+000	1.250820e+000	9.923301e-001	1.226251e+000	1.157701e+000	1.176390e+000	9.341758e-001	7.659021e-001	1.031932e+000	9.263714e-001	8.252909e-001	9.303509e-001	9.134819e-001	1.087428e+000	6.223675e-001	1.098991e+000	1.098461e+000	1.027847e+000	7.845268e-001	7.005289e-001	1.116883e+000	9.096808e-001	9.302899e-001	1.122506e+000	1.089250e+000	1.138979e+000	1.054840e+000	1.064234e+000	9.371940e-001	1.200474e+000	9.376389e-001	9.374631e-001	1.098619e+000	1.125601e+000	1.133223e+000	1.047416e+000	6.247108e-001	6.787084e-001	1.279069e+000	1.134953e+000	9.949031e-001	1.070972e+000	6.724865e-001	6.857786e-001	6.927241e-001	9.365072e-001	9.371195e-001	1.090073e+000	1.165616e+000	1.196718e+000	1.231382e+000	1.302763e+000	1.000139e+000	1.032880e+000	1.105627e+000	7.580906e-001	9.299795e-001	9.297524e-001	9.313146e-001	9.327227e-001	8.560266e-001	8.398426e-001	9.340732e-001	9.351208e-001	9.361997e-001	9.855126e-001	1.009390e+000	9.362667e-001	9.357262e-001	1.132913e+000	9.313467e-001	9.321916e-001	9.278742e-001	9.292223e-001	9.497025e-001	9.644831e-001	7.768103e-001	7.705837e-001	9.345345e-001	1.074502e+000	1.091571e+000	9.375695e-001	9.371266e-001	8.008382e-001	7.906587e-001	7.829478e-001	9.345961e-001	9.350813e-001	9.433437e-001	9.186006e-001	8.950596e-001	8.740204e-001	9.190291e-001	9.207626e-001	9.225881e-001	9.245263e-001	7.622703e-001	7.582044e-001	7.579436e-001	7.801703e-001	8.419790e-001	9.173417e-001	9.153844e-001	9.023596e-001	6.301178e-001	1.093097e+000	1.096034e+000	6.317470e-001	6.342124e-001	6.377165e-001	6.413125e-001	6.459324e-001	9.288703e-001	9.495835e-001	7.081775e-001	7.167265e-001	7.951853e-001	8.066411e-001	8.197377e-001	8.332733e-001	1.085229e+000	1.080452e+000	1.075916e+000	1.066411e+000	1.061591e+000	1.057245e+000	1.051609e+000	1.043021e+000	1.037306e+000	1.032842e+000	1.022947e+000	1.018258e+000	1.013576e+000	1.009407e+000	1.005153e+000	1.001602e+000	9.977963e-001	6.173786e-001	6.021420e-001	9.935384e-001	9.967682e-001	1.005212e+000	9.696750e-001	7.249203e-001	7.338050e-001	7.424347e-001	7.521775e-001	7.623470e-001	7.732813e-001	9.710364e-001	9.937110e-001	9.333807e-001	9.318175e-001	9.306392e-001	9.328624e-001	9.332129e-001	9.338400e-001	1.019338e+000	1.046522e+000	1.074275e+000	8.467362e-001	8.606735e-001	8.760169e-001	8.923257e-001	6.506100e-001	6.560080e-001	6.611490e-001	6.663989e-001	1.089548e+000	1.096475e+000	1.093549e+000	9.351245e-001	9.356667e-001	9.357609e-001	9.363725e-001	9.222606e-001	9.195352e-001	9.141020e-001	1.099882e+000	1.104443e+000	1.048446e+000	1.150805e+000	1.130344e+000	9.394129e-001	8.291515e-001	1.159609e+000	1.088942e+000	1.215426e+000	1.011564e+000	7.781354e-001	8.087947e-001	1.131995e+000	1.211632e+000	1.277331e+000	1.317579e+000	1.316864e+000	1.309054e+000	1.237804e+000	1.133485e+000	6.888289e-001	1.065631e+000	1.115474e+000	9.619874e-001	9.373414e-001	9.284877e-001	1.097288e+000	1.084604e+000	1.092087e+000	6.190364e-001	6.267382e-001	9.952774e-001	1.023862e+000	6.368754e-001	9.353898e-001	6.803728e-001	1.093043e+000	8.428401e-001	1.139443e+000	1.088816e+000	1.310733e+000	1.171932e+000	1.164355e+000	9.511119e-001	9.849195e-001	1.261737e+000	1.104534e+000	1.188286e+000	1.093425e+000	1.233747e+000	1.154801e+000	1.162758e+000	1.070127e+000	9.173138e-001	9.175658e-001	1.090096e+000	6.819447e-001	1.093378e+000	1.105894e+000	9.390546e-001	1.257556e+000	6.940895e-001	7.035301e-001	7.094124e-001	9.383409e-001	1.158807e+000	1.185680e+000	1.279335e+000	1.041372e+000	9.351725e-001	9.350137e-001	9.373285e-001	9.379041e-001	8.577475e-001	8.754456e-001	9.408966e-001	9.414704e-001	9.451182e-001	9.484275e-001	1.010427e+000	1.029857e+000	9.385023e-001	1.123165e+000	9.318005e-001	9.328989e-001	9.295242e-001	9.308571e-001	9.748919e-001	9.912267e-001	7.901755e-001	7.809454e-001	1.081134e+000	1.094590e+000	9.393993e-001	8.162287e-001	8.036274e-001	7.988655e-001	9.361627e-001	9.601645e-001	9.358056e-001	9.127956e-001	8.936754e-001	9.188748e-001	9.205928e-001	9.227244e-001	9.246731e-001	9.267258e-001	7.717493e-001	7.733340e-001	7.775796e-001	8.118530e-001	8.666328e-001	1.089998e+000	1.091452e+000	1.092735e+000	6.388149e-001	6.424260e-001	6.439914e-001	6.492758e-001	6.523384e-001	9.410693e-001	9.616054e-001	7.197449e-001	7.262109e-001	8.166890e-001	8.309383e-001	8.455640e-001	1.079893e+000	1.076379e+000	1.071559e+000	1.067681e+000	1.062807e+000	1.058930e+000	1.053821e+000	1.047057e+000	1.040575e+000	1.032869e+000	1.015184e+000	1.007389e+000	9.987279e-001	1.015514e+000	9.550940e-001	7.372339e-001	7.438547e-001	7.552330e-001	7.619752e-001	7.741809e-001	7.850218e-001	7.965876e-001	9.827028e-001	1.004018e+000	9.362860e-001	9.347595e-001	9.351469e-001	9.337609e-001	9.344376e-001	1.027069e+000	1.052897e+000	1.078226e+000	8.599120e-001	8.740999e-001	8.889487e-001	9.059857e-001	9.232843e-001	6.587276e-001	6.626651e-001	6.698809e-001	6.760315e-001	1.090382e+000	1.086665e+000	9.368332e-001	9.375556e-001	9.042193e-001	9.218384e-001	9.211951e-001	9.176649e-001	1.158557e+000	1.129409e+000	1.152213e+000	1.286157e+000	1.169252e+000	1.073138e+000	1.092037e+000	1.238088e+000	1.088804e+000	1.135174e+000	1.096616e+000	1.258816e+000	1.022002e+000	1.126565e+000	6.939013e-001	1.151976e+000	1.151868e+000	1.217480e+000	1.100271e+000	1.059548e+000	9.362926e-001	1.089779e+000	9.200557e-001	9.836372e-001	9.663047e-001	9.389172e-001	8.464648e-001	7.889248e-001	1.220456e+000	9.307877e-001	8.779254e-001	8.627534e-001	8.363426e-001	1.088125e+000	1.079946e+000	1.256383e+000	1.128078e+000	1.044879e+000	1.144809e+000	1.088470e+000	1.313862e+000	1.240959e+000	1.106221e+000	9.415246e-001	6.403672e-001	6.467952e-001	1.095408e+000	1.155785e+000	1.108286e+000	1.288727e+000	1.166596e+000	9.985201e-001	1.200147e+000	1.176925e+000	6.422672e-001	1.048161e+000	1.088825e+000	1.087260e+000	6.227820e-001	7.083988e-001	7.247917e-001	9.412226e-001	1.175143e+000	1.197460e+000	1.075009e+000	9.412893e-001	9.453677e-001	8.940432e-001	9.508481e-001	9.582313e-001	1.029276e+000	1.114478e+000	9.328036e-001	9.983259e-001	1.013343e+000	7.981327e-001	1.085485e+000	9.412834e-001	9.407791e-001	8.265189e-001	8.136690e-001	9.372659e-001	9.754139e-001	9.511336e-001	9.284259e-001	9.148987e-001	9.211254e-001	9.254581e-001	9.289368e-001	7.963288e-001	8.526767e-001	1.088313e+000	1.088679e+000	6.545960e-001	6.630006e-001	9.719551e-001	7.425429e-001	8.572708e-001	1.036791e+000	1.073354e+000	1.065492e+000	1.057547e+000	1.050055e+000	1.043640e+000	1.028697e+000	1.020173e+000	1.012553e+000	1.003856e+000	9.943931e-001	1.004119e+000	1.011625e+000	8.464987e-001	7.611772e-001	7.800169e-001	7.982316e-001	8.067979e-001	8.211981e-001	9.935073e-001	1.013719e+000	9.401962e-001	9.393386e-001	9.402698e-001	9.344836e-001	9.354034e-001	1.034184e+000	1.057459e+000	1.081232e+000	1.104191e+000	8.734099e-001	8.879542e-001	9.024749e-001	9.187346e-001	9.385935e-001	9.519202e-001	6.736345e-001	6.847844e-001	1.087172e+000	1.084338e+000	9.381206e-001	9.397549e-001	9.405816e-001	9.140798e-001	9.243499e-001	1.099201e+000	1.157495e+000	1.153812e+000	1.114105e+000	9.557495e-001	1.093221e+000	1.149650e+000	1.129646e+000	1.166611e+000	1.100682e+000	1.141421e+000	1.120657e+000	1.165403e+000	1.236531e+000	1.239113e+000	1.085670e+000	9.438502e-001	7.029137e-001	1.104892e+000	9.648559e-001	1.054070e+000	9.734266e-001	1.145327e+000	1.145422e+000	9.313886e-001	1.003847e+000	9.412360e-001	9.383494e-001	1.067540e+000	1.078506e+000	1.031467e+000	1.011822e+000	1.145751e+000	1.088336e+000	1.090235e+000	1.084872e+000	7.320439e-001	7.423942e-001	9.429719e-001	9.103875e-001	1.126233e+000	1.132662e+000	1.294035e+000	1.055669e+000	1.085216e+000	1.163408e+000	1.088707e+000	1.220181e+000	1.122944e+000	9.373070e-001	1.222242e+000	8.993052e-001	8.803073e-001	1.087053e+000	1.266538e+000	1.043177e+000	1.097924e+000	9.435724e-001	1.266300e+000	1.165422e+000	9.310349e-001	1.204676e+000	1.186456e+000	6.