# vtk DataFile Version 3.0
vtk output
ASCII
DATASET UNSTRUCTURED_GRID
POINTS 5233 float
9.997500e-001	-3.633419e-005	0.0	9.990000e-001	-1.455830e-004	0.0	9.977600e-001	-3.287104e-004	0.0	9.960200e-001	-5.963287e-004	0.0	9.937800e-001	-9.697063e-004	0.0	9.910500e-001	-1.482508e-003	0.0	9.878400e-001	-2.176174e-003	0.0	9.841300e-001	-3.091766e-003	0.0	9.799500e-001	-4.228188e-003	0.0	9.752800e-001	-5.545393e-003	0.0	9.701500e-001	-6.932063e-003	0.0	9.645400e-001	-8.249748e-003	0.0	9.584700e-001	-9.345620e-003	0.0	9.519400e-001	-1.011045e-002	0.0	9.449600e-001	-1.050161e-002	0.0	9.375400e-001	-1.055068e-002	0.0	9.296900e-001	-1.034498e-002	0.0	9.214000e-001	-9.996403e-003	0.0	9.127000e-001	-9.615721e-003	0.0	9.035800e-001	-9.291415e-003	0.0	8.940600e-001	-9.086342e-003	0.0	8.841500e-001	-9.038664e-003	0.0	8.738500e-001	-9.169451e-003	0.0	8.631800e-001	-9.489421e-003	0.0	8.521600e-001	-1.000340e-002	0.0	8.407700e-001	-1.071584e-002	0.0	8.290500e-001	-1.162613e-002	0.0	8.170100e-001	-1.273275e-002	0.0	8.046400e-001	-1.403369e-002	0.0	7.919700e-001	-1.551971e-002	0.0	7.790100e-001	-1.717981e-002	0.0	7.657800e-001	-1.899826e-002	0.0	7.522800e-001	-2.095916e-002	0.0	7.385200e-001	-2.304318e-002	0.0	7.245300e-001	-2.522637e-002	0.0	7.103200e-001	-2.748702e-002	0.0	6.958900e-001	-2.980513e-002	0.0	6.812700e-001	-3.215655e-002	0.0	6.664700e-001	-3.452142e-002	0.0	6.515000e-001	-3.688137e-002	0.0	6.363800e-001	-3.921816e-002	0.0	6.211300e-001	-4.151553e-002	0.0	6.057600e-001	-4.376063e-002	0.0	5.902800e-001	-4.594240e-002	0.0	5.747100e-001	-4.805011e-002	0.0	5.590600e-001	-5.007602e-002	0.0	5.433600e-001	-5.201130e-002	0.0	5.276100e-001	-5.385211e-002	0.0	5.118400e-001	-5.559206e-002	0.0	4.960500e-001	-5.722891e-002	0.0	4.802700e-001	-5.875783e-002	0.0	4.645100e-001	-6.017648e-002	0.0	4.487800e-001	-6.148258e-002	0.0	4.331100e-001	-6.267233e-002	0.0	4.175000e-001	-6.374422e-002	0.0	4.019700e-001	-6.469497e-002	0.0	3.865400e-001	-6.552127e-002	0.0	3.712300e-001	-6.621970e-002	0.0	3.560400e-001	-6.678748e-002	0.0	3.409900e-001	-6.722069e-002	0.0	3.261100e-001	-6.751537e-002	0.0	3.114000e-001	-6.766834e-002	0.0	2.968700e-001	-6.767611e-002	0.0	2.825500e-001	-6.753563e-002	0.0	2.684500e-001	-6.724446e-002	0.0	2.545700e-001	-6.680028e-002	0.0	2.409400e-001	-6.620236e-002	0.0	2.275700e-001	-6.545042e-002	0.0	2.144700e-001	-6.454505e-002	0.0	2.016600e-001	-6.348864e-002	0.0	1.891400e-001	-6.228306e-002	0.0	1.769300e-001	-6.093300e-002	0.0	1.650400e-001	-5.944344e-002	0.0	1.534900e-001	-5.782189e-002	0.0	1.422900e-001	-5.607578e-002	0.0	1.314400e-001	-5.421173e-002	0.0	1.209500e-001	-5.223848e-002	0.0	1.108500e-001	-5.016981e-002	0.0	1.011300e-001	-4.801225e-002	0.0	9.181000e-002	-4.577894e-002	0.0	8.290000e-002	-4.348150e-002	0.0	7.440000e-002	-4.112898e-002	0.0	6.633000e-002	-3.873599e-002	0.0	5.869000e-002	-3.631150e-002	0.0	5.149000e-002	-3.386714e-002	0.0	4.474000e-002	-3.141446e-002	0.0	3.844000e-002	-2.896088e-002	0.0	3.260000e-002	-2.651684e-002	0.0	2.723000e-002	-2.409249e-002	0.0	2.232000e-002	-2.168762e-002	0.0	1.790000e-002	-1.932053e-002	0.0	1.395000e-002	-1.698246e-002	0.0	1.049000e-002	-1.468466e-002	0.0	7.520000e-003	-1.242530e-002	0.0	5.040000e-003	-1.019855e-002	0.0	3.050000e-003	-7.992272e-003	0.0	1.560000e-003	-5.799879e-003	0.0	5.600000e-004	-3.570106e-003	0.0	6.000000e-005	-1.235722e-003	0.0	0.000000e+000	0.000000e+000	0.0	6.000000e-005	1.409279e-003	0.0	5.600000e-004	4.300809e-003	0.0	1.560000e-003	7.114264e-003	0.0	3.050000e-003	9.823428e-003	0.0	5.040000e-003	1.243996e-002	0.0	7.520000e-003	1.494333e-002	0.0	1.049000e-002	1.733242e-002	0.0	1.395000e-002	1.960609e-002	0.0	1.790000e-002	2.176377e-002	0.0	2.232000e-002	2.379705e-002	0.0	2.723000e-002	2.571746e-002	0.0	3.260000e-002	2.751607e-002	0.0	3.844000e-002	2.920032e-002	0.0	4.474000e-002	3.077080e-002	0.0	5.149000e-002	3.222913e-002	0.0	5.869000e-002	3.357938e-002	0.0	6.633000e-002	3.482366e-002	0.0	7.440000e-002	3.596452e-002	0.0	8.290000e-002	3.700602e-002	0.0	9.181000e-002	3.794985e-002	0.0	1.011300e-001	3.880024e-002	0.0	1.108500e-001	3.956030e-002	0.0	1.209500e-001	4.023274e-002	0.0	1.314400e-001	4.082235e-002	0.0	1.422900e-001	4.133158e-002	0.0	1.534900e-001	4.176442e-002	0.0	1.650400e-001	4.212517e-002	0.0	1.769300e-001	4.241774e-002	0.0	1.891400e-001	4.264595e-002	0.0	2.016600e-001	4.281402e-002	0.0	2.144700e-001	4.292606e-002	0.0	2.275700e-001	4.298638e-002	0.0	2.409400e-001	4.299905e-002	0.0	2.545700e-001	4.296806e-002	0.0	2.684500e-001	4.289722e-002	0.0	2.825500e-001	4.279019e-002	0.0	2.968700e-001	4.265017e-002	0.0	3.114000e-001	4.247992e-002	0.0	3.261100e-001	4.228205e-002	0.0	3.409900e-001	4.205841e-002	0.0	3.560400e-001	4.181008e-002	0.0	3.712300e-001	4.153802e-002	0.0	3.865400e-001	4.124249e-002	0.0	4.019700e-001	4.092271e-002	0.0	4.175000e-001	4.057775e-002	0.0	4.331100e-001	4.020617e-002	0.0	4.487800e-001	3.980611e-002	0.0	4.645100e-001	3.937484e-002	0.0	4.802700e-001	3.891017e-002	0.0	4.960500e-001	3.840922e-002	0.0	5.118400e-001	3.786902e-002	0.0	5.276100e-001	3.728738e-002	0.0	5.433600e-001	3.666120e-002	0.0	5.590600e-001	3.598879e-002	0.0	5.747100e-001	3.526756e-002	0.0	5.902800e-001	3.449667e-002	0.0	6.057600e-001	3.367491e-002	0.0	6.211300e-001	3.280218e-002	0.0	6.363800e-001	3.187851e-002	0.0	6.515000e-001	3.090469e-002	0.0	6.664700e-001	2.988304e-002	0.0	6.812700e-001	2.881699e-002	0.0	6.958900e-001	2.771034e-002	0.0	7.103200e-001	2.656799e-002	0.0	7.245300e-001	2.539749e-002	0.0	7.385200e-001	2.420490e-002	0.0	7.522800e-001	2.299771e-002	0.0	7.657800e-001	2.178550e-002	0.0	7.790100e-001	2.057608e-002	0.0	7.919700e-001	1.937581e-002	0.0	8.046400e-001	1.819201e-002	0.0	8.170100e-001	1.702982e-002	0.0	8.290500e-001	1.589476e-002	0.0	8.407700e-001	1.478684e-002	0.0	8.521600e-001	1.370593e-002	0.0	8.631800e-001	1.265255e-002	0.0	8.738500e-001	1.161937e-002	0.0	8.841500e-001	1.060101e-002	0.0	8.940600e-001	9.591744e-003	0.0	9.035800e-001	8.585821e-003	0.0	9.127000e-001	7.584237e-003	0.0	9.214000e-001	6.599020e-003	0.0	9.296900e-001	5.651404e-003	0.0	9.375400e-001	4.778591e-003	0.0	9.449600e-001	4.017992e-003	0.0	9.519400e-001	3.402295e-003	0.0	9.584700e-001	2.943825e-003	0.0	9.645400e-001	2.626030e-003	0.0	9.701500e-001	2.405055e-003	0.0	9.752800e-001	2.224021e-003	0.0	9.799500e-001	2.029435e-003	0.0	9.841300e-001	1.790614e-003	0.0	9.878400e-001	1.501462e-003	0.0	9.910500e-001	1.182127e-003	0.0	9.937800e-001	8.601092e-004	0.0	9.960200e-001	5.658219e-004	0.0	9.977600e-001	3.230395e-004	0.0	9.990000e-001	1.450648e-004	0.0	9.997500e-001	3.632597e-005	0.0	1.000000e+000	0.000000e+000	0.0	1.984229e+001	2.506660e+000	0.0	1.937166e+001	4.973800e+000	0.0	1.859553e+001	7.362490e+000	0.0	1.752613e+001	9.635070e+000	0.0	1.618034e+001	1.175571e+001	0.0	1.457937e+001	1.369094e+001	0.0	1.274848e+001	1.541027e+001	0.0	1.071654e+001	1.688656e+001	0.0	8.515590e+000	1.809654e+001	0.0	6.180340e+000	1.902113e+001	0.0	3.747630e+000	1.964575e+001	0.0	1.255810e+000	1.996053e+001	0.0	-1.255810e+000	1.996053e+001	0.0	-3.747630e+000	1.964574e+001	0.0	-6.180340e+000	1.902113e+001	0.0	-8.515590e+000	1.809654e+001	0.0	-1.071654e+001	1.688656e+001	0.0	-1.274848e+001	1.541026e+001	0.0	-1.457937e+001	1.369094e+001	0.0	-1.618034e+001	1.175570e+001	0.0	-1.752613e+001	9.635070e+000	0.0	-1.859553e+001	7.362490e+000	0.0	-1.937166e+001	4.973800e+000	0.0	-1.984229e+001	2.506660e+000	0.0	-2.000000e+001	0.000000e+000	0.0	-1.984229e+001	-2.506670e+000	0.0	-1.937166e+001	-4.973800e+000	0.0	-1.859553e+001	-7.362490e+000	0.0	-1.752613e+001	-9.635080e+000	0.0	-1.618034e+001	-1.175571e+001	0.0	-1.457937e+001	-1.369094e+001	0.0	-1.274848e+001	-1.541027e+001	0.0	-1.071653e+001	-1.688656e+001	0.0	-8.515580e+000	-1.809654e+001	0.0	-6.180340e+000	-1.902113e+001	0.0	-3.747620e+000	-1.964575e+001	0.0	-1.255810e+000	-1.996053e+001	0.0	1.255810e+000	-1.996053e+001	0.0	3.747630e+000	-1.964574e+001	0.0	6.180340e+000	-1.902113e+001	0.0	8.515590e+000	-1.809654e+001	0.0	1.071654e+001	-1.688656e+001	0.0	1.274848e+001	-1.541026e+001	0.0	1.457937e+001	-1.369094e+001	0.0	1.618034e+001	-1.175570e+001	0.0	1.752614e+001	-9.635070e+000	0.0	1.859553e+001	-7.362490e+000	0.0	1.937166e+001	-4.973790e+000	0.0	1.984229e+001	-2.506660e+000	0.0	2.000000e+001	0.000000e+000	0.0	6.053253e-002	-4.452223e-002	0.0	6.606901e-001	-4.941455e-002	0.0	4.258239e-001	5.477395e-002	0.0	6.896029e-001	4.158459e-002	0.0	3.794214e-001	-7.971348e-002	0.0	9.994629e-001	-7.176845e-004	0.0	9.985508e-001	-1.315429e-003	0.0	7.736891e-001	-3.067650e-002	0.0	6.902444e-001	-4.446889e-002	0.0	-1.321100e-003	6.609467e-003	0.0	7.468420e-001	-3.494208e-002	0.0	5.833352e-001	4.908409e-002	0.0	9.928165e-001	-3.741337e-003	0.0	9.899384e-001	-4.784357e-003	0.0	5.988857e-001	4.819497e-002	0.0	7.189986e-001	-3.958766e-002	0.0	-1.489338e-003	8.784386e-004	0.0	9.865752e-001	-6.000343e-003	0.0	9.827320e-001	-7.383473e-003	0.0	-1.258611e-003	-5.565699e-003	0.0	6.456515e-001	-5.186414e-002	0.0	8.240031e-001	-2.386780e-002	0.0	7.994303e-001	-2.695976e-002	0.0	3.488553e-001	5.586601e-002	0.0	8.472934e-001	-2.146794e-002	0.0	2.477825e-001	5.564548e-002	0.0	8.692486e-001	-1.974799e-002	0.0	1.012109e-002	2.150605e-002	0.0	8.897788e-001	-1.866238e-002	0.0	7.674706e-002	-5.003963e-002	0.0	9.088247e-001	-1.806520e-002	0.0	-1.814684e-003	-2.731891e-003	0.0	9.421107e-001	-1.677026e-002	0.0	9.263048e-001	-1.761924e-002	0.0	1.799382e-002	-2.469543e-002	0.0	4.261503e-001	-7.732348e-002	0.0	8.584459e-001	-2.052193e-002	0.0	9.561352e-001	-1.497956e-002	0.0	9.783961e-001	-8.931725e-003	0.0	9.682557e-001	-1.216835e-002	0.0	1.579120e-001	-6.900744e-002	0.0	8.994937e-001	-1.831879e-002	0.0	7.603996e-001	-3.275067e-002	0.0	9.971332e-001	-2.068516e-003	0.0	5.996741e-001	-5.892218e-002	0.0	4.418857e-001	-7.625532e-002	0.0	5.369279e-001	-6.720176e-002	0.0	4.735194e-001	-7.373077e-002	0.0	5.052381e-001	-7.070657e-002	0.0	4.893673e-001	-7.227988e-002	0.0	1.245860e-001	-6.265832e-002	0.0	2.782385e-002	-3.035527e-002	0.0	3.949062e-001	-7.905649e-002	0.0	4.608373e-002	-3.888
[...]
POINT_DATA 5233

SCALARS Density float 1
LOOKUP_TABLE default
1.163719e+000	1.147999e+000	1.138399e+000	1.132511e+000	1.127637e+000	1.121408e+000	1.110223e+000	1.091313e+000	1.062272e+000	1.022700e+000	9.701228e-001	9.057611e-001	8.603515e-001	8.564202e-001	8.837443e-001	9.249780e-001	9.672862e-001	1.002415e+000	1.028700e+000	1.047501e+000	1.060417e+000	1.068987e+000	1.074420e+000	1.077544e+000	1.078917e+000	1.078845e+000	1.077540e+000	1.075049e+000	1.071482e+000	1.066888e+000	1.061338e+000	1.054920e+000	1.047730e+000	1.039888e+000	1.031574e+000	1.022873e+000	1.014025e+000	1.005118e+000	9.963727e-001	9.880810e-001	9.808840e-001	9.747089e-001	9.680927e-001	9.640662e-001	9.730603e-001	9.820270e-001	9.172580e-001	7.366669e-001	6.418337e-001	6.423844e-001	6.548257e-001	6.612954e-001	6.640941e-001	6.676112e-001	6.717921e-001	6.766273e-001	6.817876e-001	6.875460e-001	6.937463e-001	7.003891e-001	7.075278e-001	7.151711e-001	7.233412e-001	7.320751e-001	7.414001e-001	7.513825e-001	7.620546e-001	7.733611e-001	7.851610e-001	7.973694e-001	8.099628e-001	8.230632e-001	8.367992e-001	8.512146e-001	8.661726e-001	8.814606e-001	8.969890e-001	9.128028e-001	9.288817e-001	9.451645e-001	9.616770e-001	9.783749e-001	9.952781e-001	1.012392e+000	1.029752e+000	1.047438e+000	1.065506e+000	1.084091e+000	1.103409e+000	1.123594e+000	1.144969e+000	1.167999e+000	1.192986e+000	1.220618e+000	1.251166e+000	1.284324e+000	1.316228e+000	1.345453e+000	1.349033e+000	1.336694e+000	1.328331e+000	1.291720e+000	1.214016e+000	1.138967e+000	1.062854e+000	9.912661e-001	9.286493e-001	8.761135e-001	8.328075e-001	7.975182e-001	7.686628e-001	7.448654e-001	7.253529e-001	7.090617e-001	6.953752e-001	6.841801e-001	6.752003e-001	6.680237e-001	6.622761e-001	6.574940e-001	6.531612e-001	6.491390e-001	6.458277e-001	6.436135e-001	6.425057e-001	6.420389e-001	6.420522e-001	6.424255e-001	6.429393e-001	6.433246e-001	6.436511e-001	6.442051e-001	6.453116e-001	6.470626e-001	6.494182e-001	6.522048e-001	6.552409e-001	6.582179e-001	6.615866e-001	6.664305e-001	6.721796e-001	6.724157e-001	6.657408e-001	7.017327e-001	8.372385e-001	9.602870e-001	9.758617e-001	9.615899e-001	9.526138e-001	9.504141e-001	9.483165e-001	9.454217e-001	9.430317e-001	9.416241e-001	9.409574e-001	9.409351e-001	9.415161e-001	9.427569e-001	9.446282e-001	9.471404e-001	9.502397e-001	9.539133e-001	9.580738e-001	9.626742e-001	9.675924e-001	9.727563e-001	9.780287e-001	9.833243e-001	9.885057e-001	9.935224e-001	9.982774e-001	1.002718e+000	1.006820e+000	1.010585e+000	1.014057e+000	1.017350e+000	1.020651e+000	1.024291e+000	1.028691e+000	1.034360e+000	1.041670e+000	1.050682e+000	1.060858e+000	1.071030e+000	1.079674e+000	1.085210e+000	1.086357e+000	1.082645e+000	1.074838e+000	1.065247e+000	1.057247e+000	1.054120e+000	1.057945e+000	1.068608e+000	1.083908e+000	1.101752e+000	1.120736e+000	1.141073e+000	1.166649e+000	1.149932e+000	9.993302e-001	9.998468e-001	9.999029e-001	9.998461e-001	9.998138e-001	9.997710e-001	9.997158e-001	9.996425e-001	9.995598e-001	9.995013e-001	9.994712e-001	9.995100e-001	9.996052e-001	9.997768e-001	9.999192e-001	1.000031e+000	1.000091e+000	1.000126e+000	1.000145e+000	1.000152e+000	1.000154e+000	1.000154e+000	1.000153e+000	1.000155e+000	1.000157e+000	1.000162e+000	1.000172e+000	1.000184e+000	1.000202e+000	1.000229e+000	1.000257e+000	1.000302e+000	1.000342e+000	1.000406e+000	1.000455e+000	1.000504e+000	1.000543e+000	1.000540e+000	1.000525e+000	1.000477e+000	1.000434e+000	1.000373e+000	1.000314e+000	1.000256e+000	1.000202e+000	1.000129e+000	1.000072e+000	1.000097e+000	9.995891e-001	9.989474e-001	1.014282e+000	9.946538e-001	9.351004e-001	9.586744e-001	6.918374e-001	1.149510e+000	1.140469e+000	1.055995e+000	1.010996e+000	1.269808e+000	1.042851e+000	9.436977e-001	1.117897e+000	1.108529e+000	9.440460e-001	1.027482e+000	1.332660e+000	1.094581e+000	1.074079e+000	1.330906e+000	9.873118e-001	1.072369e+000	1.066063e+000	6.704399e-001	1.074265e+000	6.487829e-001	1.070703e+000	9.594179e-001	1.059054e+000	9.804585e-001	1.033866e+000	1.344172e+000	9.217547e-001	9.878033e-001	1.147774e+000	6.762828e-001	1.073263e+000	8.867601e-001	1.046279e+000	9.613196e-001	8.550958e-001	1.048622e+000	1.049746e+000	1.131565e+000	9.691096e-001	6.718009e-001	8.428617e-001	6.653786e-001	6.434512e-001	6.544238e-001	9.001917e-001	1.105700e+000	6.861336e-001	1.049293e+000	6.809095e-001	7.197294e-001	7.047955e-001	1.086218e+000	7.367960e-001	9.559900e-001	8.697722e-001	8.146573e-001	9.639330e-001	9.315308e-001	9.846219e-001	8.410137e-001	9.752792e-001	1.066146e+000	1.126149e+000	1.124945e+000	1.222692e+000	8.640929e-001	1.013821e+000	8.942820e-001	1.010266e+000	1.210953e+000	1.073900e+000	7.668202e-001	9.866671e-001	1.035355e+000	1.061457e+000	9.157369e-001	7.899051e-001	9.693500e-001	1.002721e+000	1.031612e+000	1.251424e+000	1.170880e+000	6.980704e-001	8.275740e-001	1.174513e+000	7.780975e-001	9.476219e-001	7.279947e-001	7.561607e-001	6.688414e-001	1.019279e+000	1.316491e+000	1.309621e+000	9.465626e-001	1.338977e+000	7.956164e-001	7.130530e-001	7.472920e-001	6.576530e-001	7.420094e-001	1.112688e+000	9.492528e-001	9.566233e-001	1.069707e+000	1.079374e+000	1.028197e+000	9.531472e-001	9.875539e-001	6.709137e-001	1.055464e+000	1.039554e+000	6.811598e-001	1.064193e+000	1.080147e+000	1.071799e+000	6.680692e-001	7.001763e-001	6.553110e-001	6.504004e-001	6.478152e-001	6.611409e-001	9.710344e-001	6.689260e-001	6.493611e-001	6.537683e-001	9.465966e-001	6.476035e-001	6.474833e-001	9.515535e-001	9.439057e-001	9.773071e-001	9.674864e-001	9.969571e-001	9.873607e-001	1.013213e+000	1.005622e+000	1.033302e+000	1.020244e+000	1.077472e+000	1.047041e+000	1.075479e+000	1.016737e+000	1.023964e+000	1.001425e+000	1.009540e+000	9.823577e-001	9.922605e-001	9.629129e-001	9.723213e-001	9.487923e-001	9.548734e-001	9.448004e-001	9.450218e-001	6.475069e-001	6.478464e-001	6.483258e-001	6.476877e-001	7.286469e-001	6.511413e-001	9.080940e-001	7.694037e-001	8.021077e-001	1.081082e+000	9.107614e-001	1.069720e+000	7.120075e-001	6.592633e-001	1.147496e+000	8.268593e-001	1.017424e+000	6.741517e-001	6.896842e-001	6.526103e-001	6.625624e-001	1.061391e+000	1.063201e+000	6.582128e-001	1.070373e+000	1.081895e+000	6.646386e-001	6.742849e-001	1.064081e+000	1.181151e+000	1.130743e+000	1.147125e+000	9.811097e-001	1.067472e+000	1.096448e+000	9.518147e-001	1.281280e+000	1.195821e+000	9.972350e-001	8.848669e-001	7.461786e-001	7.074569e-001	1.245906e+000	1.292344e+000	7.522897e-001	1.015965e+000	1.021182e+000	1.215910e+000	9.467358e-001	1.008286e+000	1.055911e+000	1.094750e+000	7.256434e-001	1.068394e+000	1.068443e+000	9.663024e-001	1.312549e+000	8.078964e-001	1.168057e+000	9.296700e-001	8.741854e-001	1.023619e+000	9.933178e-001	6.779862e-001	9.825236e-001	6.975305e-001	1.048283e+000	1.060380e+000	1.029172e+000	8.896248e-001	9.562452e-001	1.012308e+000	6.738609e-001	9.596821e-001	6.560475e-001	1.023546e+000	1.072573e+000	6.690338e-001	9.529667e-001	1.073911e+000	1.027700e+000	1.080535e+000	1.075143e+000	1.066914e+000	6.524777e-001	6.645614e-001	6.521514e-001	6.806745e-001	1.000658e+000	8.203996e-001	9.779170e-001	6.606618e-001	7.510961e-001	1.071552e+000	1.091583e+000	1.032428e+000	8.599592e-001	1.186759e+000	1.118941e+000	1.104524e+000	1.083949e+000	1.195278e+000	1.241433e+000	1.335684e+000	1.330533e+000	1.146027e+000	1.184250e+000	1.015666e+000	1.130588e+000	1.115340e+000	8.583957e-001	9.508034e-001	1.078876e+000	1.062568e+000	9.468537e-001	1.106420e+000	1.330198e+000	6.817238e-001	6.957364e-001	1.069090e+000	6.565914e-001	1.066370e+000	1.056728e+000	9.989618e-001	1.036620e+000	1.001400e+000	9.292430e-001	1.105353e+000	9.186930e-001	9.615854e-001	1.057704e+000	9.039755e-001	1.044577e+000	1.050576e+000	1.122915e+000	6.735324e-001	6.674566e-001	6.485147e-001	1.125273e+000	6.918638e-001	6.868772e-001	7.178399e-001	1.067960e+000	9.776376e-001	9.518425e-001	8.889242e-001	9.503349e-001	9.892711e-001	9.769330e-001	9.994949e-001	1.031505e+000	1.030939e+000	1.038068e+000	9.346738e-001	9.192067e-001	9.753279e-001	9.722201e-001	1.050137e+000	1.032751e+000	1.191234e+000	7.105600e-001	7.037961e-001	8.463562e-001	8.332228e-001	7.957357e-001	7.840412e-001	7.428704e-001	7.339670e-001	7.728549e-001	1.321407e+000	1.267619e+000	7.712097e-001	1.067893e+000	9.501287e-001	9.554387e-001	9.565374e-001	9.610848e-001	1.068615e+000	1.074142e+000	1.051136e+000	9.774015e-001	9.785284e-001	6.630550e-001	1.044200e+000	1.070377e+000	7.195256e-001	7.339406e-001	6.533382e-001	6.546826e-001	6.579404e-001	6.643106e-001	6.684817e-001	9.958012e-001	9.769432e-001	9.722812e-001	9.912300e-001	1.008487e+000	1.037894e+000	1.019707e+000	1.016016e+000	1.004486e+000	1.000260e+000	9.864927e-001	9.817183e-001	9.677801e-001	9.635725e-001	9.532502e-001	9.508172e-001	9.471137e-001	9.481948e-001	9.489032e-001	9.476090e-001	6.522494e-001	6.528276e-001	6.536681e-001	6.547860e-001	9.312998e-001	7.947564e-001	8.221131e-001	1.064052e+000	1.066776e+000	6.526063e-001	7.504849e-001	1.140821e+000	8.534991e-001	6.884967e-001	6.972958e-001	6.615775e-001	6.589260e-001	6.726396e-001	6.743753e-001	1.064946e+000	1.058274e+000	9.816948e-001	9.869278e-001	1.086313e+000	1.292854e+000	7.622938e-001	1.310405e+000	7.042114e-001	7.590779e-001	1.054813e+000	8.797057e-001	1.011076e+000	1.080402e+000	1.074284e+000	1.071533e+000	1.136884e+000	1.089245e+000	1.133882e+000	1.154977e+000	1.120911e+000	1.170388e+000	1.143899e+000	1.302230e+000	9.695990e-001	9.933451e-001	1.095944e+000	9.497982e-001	1.139825e+000	1.231360e+000	1.019941e+000	1.276187e+000	1.026842e+000	1.164376e+000	1.058982e+000	1.208429e+000	7.322244e-001	1.061996e+000	1.012967e+000	1.106158e+000	1.186117e+000	1.069531e+000	9.537635e-001	1.068573e+000	9.579316e-001	1.099468e+000	9.569265e-001	6.592890e-001	6.689301e-001	6.673006e-001	7.397843e-001	1.144436e+000	1.292058e+000	1.224306e+000	9.520988e-001	1.269311e+000	9.694606e-001	9.853654e-001	1.324632e+000	8.794694e-001	6.834264e-001	1.124034e+000	1.040123e+000	1.011502e+000	9.949910e-001	9.610139e-001	1.070702e+000	1.070838e+000	1.031404e+000	1.026942e+000	6.653507e-001	6.607875e-001	6.574616e-001	6.941430e-001	9.988889e-001	1.005785e+000	8.267695e-001	9.948047e-001	6.707430e-001	1.069989e+000	1.109821e+000	1.088026e+000	1.183522e+000	1.254027e+000	1.317794e+000	1.104801e+000	1.151890e+000	1.145391e+000	9.976002e-001	1.083638e+000	9.496920e-001	6.882314e-001	7.626480e-001	1.063858e+000	1.063491e+000	1.054286e+000	1.047463e+000	1.017708e+000	1.001453e+000	1.038254e+000	1.026219e+000	9.464593e-001	9.498915e-001	1.067859e+000	1.045361e+000	1.050258e+000	1.113449e+000	6.770015e-001	6.651886e-001	6.987886e-001	6.932259e-001	1.086523e+000	9.740987e-001	9.566500e-001	9.086175e-001	8.938274e-001	9.839374e-001	9.826603e-001	1.024558e+000	1.047923e+000	1.033427e+000	1.039522e+000	9.540367e-001	9.385903e-001	9.235202e-001	9.748871e-001	9.776419e-001	1.068855e+000	1.051417e+000	1.034277e+000	7.244022e-001	7.170563e-001	7.102274e-001	8.658305e-001	8.525670e-001	8.395336e-001	8.143322e-001	8.023052e-001	7.495464e-001	7.406334e-001	7.906916e-001	7.952644e-001	9.591022e-001	9.601867e-001	1.070993e+000	9.694693e-001	9.852206e-001	9.456940e-001	6.670396e-001	1.047725e+000	7.557871e-001	7.742433e-001	6.582574e-001	6.577326e-001	6.752665e-001	6.809670e-001	6.870188e-001	9.770057e-001	1.041834e+000	1.036328e+000	1.022860e+000	1.019020e+000	1.015323e+000	1.007577e+000	1.003554e+000	9.993547e-001	9.905868e-001	9.860478e-001	9.815283e-001	9.726827e-001	9.684658e-001	9.646235e-001	9.551835e-001	9.502187e-001	9.514366e-001	9.530774e-001	9.513754e-001	9.503502e-001	6.576719e-001	6.582832e-001	6.597456e-001	6.617471e-001	6.644390e-001	8.194440e-001	8.472322e-001	1.058280e+000	1.061155e+000	1.062959e+000	6.529357e-001	6.959177e-001	8.786649e-001	9.133055e-001	7.033887e-001	7.142003e-001	7.261357e-001	6.628936e-001	6.655007e-001	6.749400e-001	6.732504e-001	1.064745e+000	1.059671e+000	1.053831e+000	9.822520e-001	9.870875e-001	9.924061e-001	7.796369e-001	7.690752e-001	1.290968e+000	9.731375e-001	1.103423e+000	1.072075e+000	9.520377e-001	1.279818e+000	1.127194e+000	1.004423e+000	9.902457e-001	1.103324e+000	1.086799e+000	9.596861e-001	1.273403e+000	1.008360e+000	1.219388e+000	1.068411e+000	1.094766e+000	1.205899e+000	9.591534e-001	1.170670e+000	1.159097e+000	1.153715e+000	1.053135e+000	8.861890e-001	1.140579e+000	7.130006e-001	9.885721e-001	6.947762e-001	7.675040e-001	1.075206e+000	9.524314e-001	1.066632e+000	1.063823e+000	9.943754e-001	6.829826e-001	6.643690e-001	1.086586e+000	7.778270e-001	1.054444e+000	1.120322e+000	1.080092e+000	1.112191e+000	1.021972e+000	1.159331e+000	1.016475e+000	1.239528e+000	1.022500e+000	1.029183e+000	1.179243e+000	1.096613e+000	1.199413e+000	1.010480e+000	9.570558e-001	6.678121e-001	1.245825e+000	1.048181e+000	9.624257e-001	1.030514e+000	6.703660e-001	6.661158e-001	6.648328e-001	1.003407e+000	1.009767e+000	1.070455e+000	1.088814e+000	1.130703e+000	1.258776e+000	1.300052e+000	1.121600e+000	1.001143e+000	1.074155e+000	9.522099e-001	1.058009e+000	1.057141e+000	1.050993e+000	1.045325e+000	1.019766e+000	1.004051e+000	1.038224e+000	1.028874e+000	1.017507e+000	9.705172e-001	9.820356e-001	1.045003e+000	1.048394e+000	1.105117e+000	6.895988e-001	6.745625e-001	7.069144e-001	7.010450e-001	9.774767e-001	9.696372e-001	9.140612e-001	8.993632e-001	9.875464e-001	1.041434e+000	1.059087e+000	1.034070e+000	1.040371e+000	9.580473e-001	9.432283e-001	9.287186e-001	9.845343e-001	9.808033e-001	1.086426e+000	1.069147e+000	1.052023e+000	1.035607e+000	7.407692e-001	7.327507e-001	7.255995e-001	7.188377e-001	8.730806e-001	8.600349e-001	8.471260e-001	8.345011e-001	8.223294e-001	7.490278e-001	7.581363e-001	8.104328e-001	9.608370e-001	1.069782e+000	1.069306e+000	9.637177e-001	9.789095e-001	9.794113e-001	8.744819e-001	7.064555e-001	7.978244e-001	8.201447e-001	6.640747e-001	6.644059e-001	6.882814e-001	6.948073e-001	7.021994e-001	7.103906e-001	1.045087e+000	1.039958e+000	1.035071e+000	1.026209e+000	1.022289e+000	1.018488e+000	1.014284e+000	1.007058e+000	1.002592e+000	9.984895e-001	9.899223e-001	9.857673e-001	9.812445e-001	9.772569e-001	9.728738e-001	9.692986e-001	9.653386e-001	9.546640e-001	9.526243e-001	9.571237e-001	9.547866e-001	9.537416e-001	9.523575e-001	6.646383e-001	6.657257e-001	6.669664e-001	6.697744e-001	6.730641e-001	6.777532e-001	8.439685e-001	8.709599e-001	1.054511e+000	1.057231e+000	1.058055e+000	6.688965e-001	6.855546e-001	7.974517e-001	9.017764e-001	9.349377e-001	9.699929e-001	7.199536e-001	7.320230e-001	7.461755e-001	7.611201e-001	6.627669e-001	6.691089e-001	6.749031e-001	6.733381e-001	1.050348e+000	1.059983e+000	1.055458e+000	9.801625e-001	9.846724e-001	9.904229e-001	9.967274e-001	7.990806e-001	7.880203e-001	7.776454e-001	1.172039e+000	1.099776e+000	1.023461e+000	1.151019e+000	1.190349e+000	1.026302e+000	9.772866e-001	1.208070e+000	1.072123e+000	1.242557e+000	1.118530e+000	8.949675e-001	7.031534e-001	1.055218e+000	1.160206e+000	1.253251e+000	1.303863e+000	1.305670e+000	1.294314e+000	1.256035e+000	1.107416e+000	6.732864e-001	1.038832e+000	1.088674e+000	9.942406e-001	1.047437e+000	7.218947e-001	1.090783e+000	1.047641e+000	1.059836e+000	9.541025e-001	9.565718e-001	9.616346e-001	9.912838e-001	9.616571e-001	9.213198e-001	6.746296e-001	1.084646e+000	9.921181e-001	1.138782e+000	1.075127e+000	1.300655e+000	1.148660e+000	1.140175e+000	1.001805e+000	1.102184e+000	1.270584e+000	1.019940e+000	1.225652e+000	1.065181e+000	1.190954e+000	1.148793e+000	1.146313e+000	1.154180e+000	7.659938e-001	7.775073e-001	1.079248e+000	9.540936e-001	1.062869e+000	1.078571e+000	1.015363e+000	1.224049e+000	6.712057e-001	6.711693e-001	6.699512e-001	1.003143e+000	1.090246e+000	1.125729e+000	1.279541e+000	1.136860e+000	1.052046e+000	1.050872e+000	1.046884e+000	1.043553e+000	1.007009e+000	1.022245e+000	1.037198e+000	1.030638e+000	1.021765e+000	1.011799e+000	9.953614e-001	1.008211e+000	1.041392e+000	1.096982e+000	7.004777e-001	6.908462e-001	7.138769e-001	7.087823e-001	9.876112e-001	9.880150e-001	9.193569e-001	9.051447e-001	1.053573e+000	1.066975e+000	1.034613e+000	9.622642e-001	9.476253e-001	9.361485e-001	9.954952e-001	1.085912e+000	1.069419e+000	1.052909e+000	1.037521e+000	7.590261e-001	7.487468e-001	7.427497e-001	7.336228e-001	7.288885e-001	8.801844e-001	8.692909e-001	8.542393e-001	8.439603e-001	8.298064e-001	1.070021e+000	1.068472e+000	1.066985e+000	9.654764e-001	9.766204e-001	9.845243e-001	9.302438e-001	7.812036e-001	8.217720e-001	8.446267e-001	6.712366e-001	6.708038e-001	7.077704e-001	7.192981e-001	7.291416e-001	1.042762e+000	1.038179e+000	1.033667e+000	1.029325e+000	1.025252e+000	1.021319e+000	1.017197e+000	1.011393e+000	1.005987e+000	9.993350e-001	9.830034e-001	9.749974e-001	9.677177e-001	9.571971e-001	9.546257e-001	6.731012e-001	6.731848e-001	6.770048e-001	6.781444e-001	6.844441e-001	6.893351e-001	6.960729e-001	8.689152e-001	8.942083e-001	1.051065e+000	1.053248e+000	1.051969e+000	6.827651e-001	7.205438e-001	9.228303e-001	9.545728e-001	9.863767e-001	7.396584e-001	7.523089e-001	7.677737e-001	7.856333e-001	8.029258e-001	6.861195e-001	6.634834e-001	6.701164e-001	6.748846e-001	1.056339e+000	1.051682e+000	9.835043e-001	9.891918e-001	8.201915e-001	8.067517e-001	7.979638e-001	7.855005e-001	1.133540e+000	1.127727e+000	1.196738e+000	1.269267e+000	1.147192e+000	1.050564e+000	1.082448e+000	1.205196e+000	1.064357e+000	1.109965e+000	1.072392e+000	1.261385e+000	1.115442e+000	1.180712e+000	6.774550e-001	1.151185e+000	1.090772e+000	1.177277e+000	1.164366e+000	1.038780e+000	8.400933e-001	1.077889e+000	7.805466e-001	1.002008e+000	1.007832e+000	9.839346e-001	9.809629e-001	8.952946e-001	1.238974e+000	7.247110e-001	1.010772e+000	9.962306e-001	7.306029e-001	1.071051e+000	1.046446e+000	1.230914e+000	1.060275e+000	1.027021e+000	1.144172e+000	1.074055e+000	1.302015e+000	1.251331e+000	1.081829e+000	1.027716e+000	9.588414e-001	9.778242e-001	1.087715e+000	1.143928e+000	1.103990e+000	1.281629e+000	1.143461e+000	1.100669e+000	1.226629e+000	1.212171e+000	9.551553e-001	1.131765e+000	1.062243e+000	1.059162e+000	9.539926e-001	6.769518e-001	6.771517e-001	1.019017e+000	1.121004e+000	1.150266e+000	1.148725e+000	1.045163e+000	1.038659e+000	1.024643e+000	1.028473e+000	1.017245e+000	1.015967e+000	1.090026e+000	7.102810e-001	1.001771e+000	1.007110e+000	9.187396e-001	1.061863e+000	1.034594e+000	1.040164e+000	9.607900e-001	9.409347e-001	9.757761e-001	1.085273e+000	1.068625e+000	1.053335e+000	1.041462e+000	7.627779e-001	7.474083e-001	7.374151e-001	8.697799e-001	8.451092e-001	1.068620e+000	1.066510e+000	9.699945e-001	7.825189e-001	8.682084e-001	6.797364e-001	7.494168e-001	1.003438e+000	1.038180e+000	1.029707e+000	1.021800e+000	1.015103e+000	1.009410e+000	9.962302e-001	9.883673e-001	9.805074e-001	9.731108e-001	9.665287e-001	9.611968e-001	9.576845e-001	9.561553e-001	6.847808e-001	6.927294e-001	7.029565e-001	7.074611e-001	7.190109e-001	8.929572e-001	9.170755e-001	1.044686e+000	1.047468e+000	1.046698e+000	6.948158e-001	7.106230e-001	9.425194e-001	9.713601e-001	1.000854e+000	1.029875e+000	7.623948e-001	7.748281e-001	7.903316e-001	8.093581e-001	8.305907e-001	8.437813e-001	6.733577e-001	6.702677e-001	1.056763e+000	1.052817e+000	9.900535e-001	9.950266e-001	1.008540e+000	8.219318e-001	8.003718e-001	1.092756e+000	1.133594e+000	1.128931e+000	1.110473e+000	1.062217e+000	1.084628e+000	1.146874e+000	1.104824e+000	1.199240e+000	1.156921e+000	1.116575e+000	1.096444e+000	1.116754e+000	1.210953e+000	1.243544e+000	1.066677e+000	1.028281e+000	6.782329e-001	1.099826e+000	1.022932e+000	1.126943e+000	8.794903e-001	1.091109e+000	1.185699e+000	7.438587e-001	1.012233e+000	9.888470e-001	9.309565e-001	1.049411e+000	1.058583e+000	1.112189e+000	1.098902e+000	1.144837e+000	1.075916e+000	1.079858e+000	1.061868e+000	6.849024e-001	9.575267e-001	1.012673e+000	1.027010e+000	1.124209e+000	1.130795e+000	1.281860e+000	1.040053e+000	1.064151e+000	1.142762e+000	1.067555e+000	1.188835e+000	1.171183e+000	7.891046e-001	1.233450e+000	1.015929e+000	9.993222e-001	1.072399e+000	1.247916e+000	1.031065e+000	1.075875e+000	1.021303e+000	1.262003e+000	1.142869e+000	1.042232e+000	1.222918e+000	1.211645e+000	9.