# vtk DataFile Version 3.0
vtk output
ASCII
DATASET UNSTRUCTURED_GRID
POINTS 5233 float
9.997500e-001	-3.633126e-005	0.0	9.990000e-001	-1.453985e-004	0.0	9.977600e-001	-3.266983e-004	0.0	9.960200e-001	-5.855624e-004	0.0	9.937800e-001	-9.313467e-004	0.0	9.910500e-001	-1.378658e-003	0.0	9.878400e-001	-1.947018e-003	0.0	9.841300e-001	-2.661005e-003	0.0	9.799500e-001	-3.526290e-003	0.0	9.752800e-001	-4.539373e-003	0.0	9.701500e-001	-5.662249e-003	0.0	9.645400e-001	-6.846552e-003	0.0	9.584700e-001	-8.024368e-003	0.0	9.519400e-001	-9.134798e-003	0.0	9.449600e-001	-1.012926e-002	0.0	9.375400e-001	-1.097919e-002	0.0	9.296900e-001	-1.167555e-002	0.0	9.214000e-001	-1.222638e-002	0.0	9.127000e-001	-1.264927e-002	0.0	9.035800e-001	-1.297503e-002	0.0	8.940600e-001	-1.324287e-002	0.0	8.841500e-001	-1.350129e-002	0.0	8.738500e-001	-1.380495e-002	0.0	8.631800e-001	-1.420941e-002	0.0	8.521600e-001	-1.476573e-002	0.0	8.407700e-001	-1.551793e-002	0.0	8.290500e-001	-1.649329e-002	0.0	8.170100e-001	-1.770519e-002	0.0	8.046400e-001	-1.915443e-002	0.0	7.919700e-001	-2.082424e-002	0.0	7.790100e-001	-2.268937e-002	0.0	7.657800e-001	-2.471603e-002	0.0	7.522800e-001	-2.686980e-002	0.0	7.385200e-001	-2.911407e-002	0.0	7.245300e-001	-3.141034e-002	0.0	7.103200e-001	-3.372651e-002	0.0	6.958900e-001	-3.603621e-002	0.0	6.812700e-001	-3.831286e-002	0.0	6.664700e-001	-4.053773e-002	0.0	6.515000e-001	-4.269640e-002	0.0	6.363800e-001	-4.477689e-002	0.0	6.211300e-001	-4.677069e-002	0.0	6.057600e-001	-4.867332e-002	0.0	5.902800e-001	-5.048217e-002	0.0	5.747100e-001	-5.219495e-002	0.0	5.590600e-001	-5.381137e-002	0.0	5.433600e-001	-5.532967e-002	0.0	5.276100e-001	-5.675121e-002	0.0	5.118400e-001	-5.807447e-002	0.0	4.960500e-001	-5.930026e-002	0.0	4.802700e-001	-6.042662e-002	0.0	4.645100e-001	-6.145285e-002	0.0	4.487800e-001	-6.237778e-002	0.0	4.331100e-001	-6.319887e-002	0.0	4.175000e-001	-6.391506e-002	0.0	4.019700e-001	-6.452406e-002	0.0	3.865400e-001	-6.502372e-002	0.0	3.712300e-001	-6.541210e-002	0.0	3.560400e-001	-6.568783e-002	0.0	3.409900e-001	-6.584917e-002	0.0	3.261100e-001	-6.589477e-002	0.0	3.114000e-001	-6.582374e-002	0.0	2.968700e-001	-6.563523e-002	0.0	2.825500e-001	-6.532900e-002	0.0	2.684500e-001	-6.490500e-002	0.0	2.545700e-001	-6.436296e-002	0.0	2.409400e-001	-6.370400e-002	0.0	2.275700e-001	-6.292900e-002	0.0	2.144700e-001	-6.203909e-002	0.0	2.016600e-001	-6.103655e-002	0.0	1.891400e-001	-5.992252e-002	0.0	1.769300e-001	-5.870020e-002	0.0	1.650400e-001	-5.737247e-002	0.0	1.534900e-001	-5.594396e-002	0.0	1.422900e-001	-5.441884e-002	0.0	1.314400e-001	-5.280022e-002	0.0	1.209500e-001	-5.109289e-002	0.0	1.108500e-001	-4.930574e-002	0.0	1.011300e-001	-4.744135e-002	0.0	9.181000e-002	-4.550793e-002	0.0	8.290000e-002	-4.351234e-002	0.0	7.440000e-002	-4.145920e-002	0.0	6.633000e-002	-3.935794e-002	0.0	5.869000e-002	-3.721302e-002	0.0	5.149000e-002	-3.503109e-002	0.0	4.474000e-002	-3.281862e-002	0.0	3.844000e-002	-3.057807e-002	0.0	3.260000e-002	-2.831432e-002	0.0	2.723000e-002	-2.603173e-002	0.0	2.232000e-002	-2.372439e-002	0.0	1.790000e-002	-2.140386e-002	0.0	1.395000e-002	-1.905522e-002	0.0	1.049000e-002	-1.668331e-002	0.0	7.520000e-003	-1.428067e-002	0.0	5.040000e-003	-1.183706e-002	0.0	3.050000e-003	-9.338322e-003	0.0	1.560000e-003	-6.783679e-003	0.0	5.600000e-004	-4.135200e-003	0.0	6.000000e-005	-1.378240e-003	0.0	0.000000e+000	0.000000e+000	0.0	6.000000e-005	1.543724e-003	0.0	5.600000e-004	4.902488e-003	0.0	1.560000e-003	8.280827e-003	0.0	3.050000e-003	1.159883e-002	0.0	5.040000e-003	1.485153e-002	0.0	7.520000e-003	1.800396e-002	0.0	1.049000e-002	2.104921e-002	0.0	1.395000e-002	2.398251e-002	0.0	1.790000e-002	2.680087e-002	0.0	2.232000e-002	2.949127e-002	0.0	2.723000e-002	3.206717e-002	0.0	3.260000e-002	3.451478e-002	0.0	3.844000e-002	3.684221e-002	0.0	4.474000e-002	3.904822e-002	0.0	5.149000e-002	4.113289e-002	0.0	5.869000e-002	4.309976e-002	0.0	6.633000e-002	4.494953e-002	0.0	7.440000e-002	4.668359e-002	0.0	8.290000e-002	4.830562e-002	0.0	9.181000e-002	4.981570e-002	0.0	1.011300e-001	5.121789e-002	0.0	1.108500e-001	5.251461e-002	0.0	1.209500e-001	5.370745e-002	0.0	1.314400e-001	5.480168e-002	0.0	1.422900e-001	5.579829e-002	0.0	1.534900e-001	5.670083e-002	0.0	1.650400e-001	5.751349e-002	0.0	1.769300e-001	5.823952e-002	0.0	1.891400e-001	5.888166e-002	0.0	2.016600e-001	5.944324e-002	0.0	2.144700e-001	5.992707e-002	0.0	2.275700e-001	6.033657e-002	0.0	2.409400e-001	6.067414e-002	0.0	2.545700e-001	6.094228e-002	0.0	2.684500e-001	6.114314e-002	0.0	2.825500e-001	6.127832e-002	0.0	2.968700e-001	6.134950e-002	0.0	3.114000e-001	6.135779e-002	0.0	3.261100e-001	6.130405e-002	0.0	3.409900e-001	6.118894e-002	0.0	3.560400e-001	6.101264e-002	0.0	3.712300e-001	6.077546e-002	0.0	3.865400e-001	6.047761e-002	0.0	4.019700e-001	6.011876e-002	0.0	4.175000e-001	5.969890e-002	0.0	4.331100e-001	5.921810e-002	0.0	4.487800e-001	5.867648e-002	0.0	4.645100e-001	5.807347e-002	0.0	4.802700e-001	5.740957e-002	0.0	4.960500e-001	5.668451e-002	0.0	5.118400e-001	5.589789e-002	0.0	5.276100e-001	5.505020e-002	0.0	5.433600e-001	5.414026e-002	0.0	5.590600e-001	5.316840e-002	0.0	5.747100e-001	5.213306e-002	0.0	5.902800e-001	5.103461e-002	0.0	6.057600e-001	4.987227e-002	0.0	6.211300e-001	4.864640e-002	0.0	6.363800e-001	4.735725e-002	0.0	6.515000e-001	4.600604e-002	0.0	6.664700e-001	4.459624e-002	0.0	6.812700e-001	4.313322e-002	0.0	6.958900e-001	4.162346e-002	0.0	7.103200e-001	4.007564e-002	0.0	7.245300e-001	3.850292e-002	0.0	7.385200e-001	3.691723e-002	0.0	7.522800e-001	3.533305e-002	0.0	7.657800e-001	3.376782e-002	0.0	7.790100e-001	3.223604e-002	0.0	7.919700e-001	3.074884e-002	0.0	8.046400e-001	2.931551e-002	0.0	8.170100e-001	2.793798e-002	0.0	8.290500e-001	2.661208e-002	0.0	8.407700e-001	2.531927e-002	0.0	8.521600e-001	2.403242e-002	0.0	8.631800e-001	2.271766e-002	0.0	8.738500e-001	2.132666e-002	0.0	8.841500e-001	1.981345e-002	0.0	8.940600e-001	1.813894e-002	0.0	9.035800e-001	1.627832e-002	0.0	9.127000e-001	1.423792e-002	0.0	9.214000e-001	1.206691e-002	0.0	9.296900e-001	9.851008e-003	0.0	9.375400e-001	7.722476e-003	0.0	9.449600e-001	5.817449e-003	0.0	9.519400e-001	4.259436e-003	0.0	9.584700e-001	3.119042e-003	0.0	9.645400e-001	2.391197e-003	0.0	9.701500e-001	1.996256e-003	0.0	9.752800e-001	1.809695e-003	0.0	9.799500e-001	1.700735e-003	0.0	9.841300e-001	1.573032e-003	0.0	9.878400e-001	1.380042e-003	0.0	9.910500e-001	1.125369e-003	0.0	9.937800e-001	8.387111e-004	0.0	9.960200e-001	5.597352e-004	0.0	9.977600e-001	3.218922e-004	0.0	9.990000e-001	1.449590e-004	0.0	9.997500e-001	3.632429e-005	0.0	1.000000e+000	0.000000e+000	0.0	1.984229e+001	2.506660e+000	0.0	1.937166e+001	4.973800e+000	0.0	1.859553e+001	7.362490e+000	0.0	1.752613e+001	9.635070e+000	0.0	1.618034e+001	1.175571e+001	0.0	1.457937e+001	1.369094e+001	0.0	1.274848e+001	1.541027e+001	0.0	1.071654e+001	1.688656e+001	0.0	8.515590e+000	1.809654e+001	0.0	6.180340e+000	1.902113e+001	0.0	3.747630e+000	1.964575e+001	0.0	1.255810e+000	1.996053e+001	0.0	-1.255810e+000	1.996053e+001	0.0	-3.747630e+000	1.964574e+001	0.0	-6.180340e+000	1.902113e+001	0.0	-8.515590e+000	1.809654e+001	0.0	-1.071654e+001	1.688656e+001	0.0	-1.274848e+001	1.541026e+001	0.0	-1.457937e+001	1.369094e+001	0.0	-1.618034e+001	1.175570e+001	0.0	-1.752613e+001	9.635070e+000	0.0	-1.859553e+001	7.362490e+000	0.0	-1.937166e+001	4.973800e+000	0.0	-1.984229e+001	2.506660e+000	0.0	-2.000000e+001	0.000000e+000	0.0	-1.984229e+001	-2.506670e+000	0.0	-1.937166e+001	-4.973800e+000	0.0	-1.859553e+001	-7.362490e+000	0.0	-1.752613e+001	-9.635080e+000	0.0	-1.618034e+001	-1.175571e+001	0.0	-1.457937e+001	-1.369094e+001	0.0	-1.274848e+001	-1.541027e+001	0.0	-1.071653e+001	-1.688656e+001	0.0	-8.515580e+000	-1.809654e+001	0.0	-6.180340e+000	-1.902113e+001	0.0	-3.747620e+000	-1.964575e+001	0.0	-1.255810e+000	-1.996053e+001	0.0	1.255810e+000	-1.996053e+001	0.0	3.747630e+000	-1.964574e+001	0.0	6.180340e+000	-1.902113e+001	0.0	8.515590e+000	-1.809654e+001	0.0	1.071654e+001	-1.688656e+001	0.0	1.274848e+001	-1.541026e+001	0.0	1.457937e+001	-1.369094e+001	0.0	1.618034e+001	-1.175570e+001	0.0	1.752614e+001	-9.635070e+000	0.0	1.859553e+001	-7.362490e+000	0.0	1.937166e+001	-4.973790e+000	0.0	1.984229e+001	-2.506660e+000	0.0	2.000000e+001	0.000000e+000	0.0	6.065388e-002	-4.538130e-002	0.0	6.606224e-001	-5.518184e-002	0.0	4.258704e-001	7.379190e-002	0.0	6.899434e-001	5.570361e-002	0.0	3.792738e-001	-7.912634e-002	0.0	9.994589e-001	-7.215645e-004	0.0	9.985426e-001	-1.317334e-003	0.0	7.738112e-001	-3.621496e-002	0.0	6.902342e-001	-5.049697e-002	0.0	-1.708223e-003	7.539850e-003	0.0	7.469309e-001	-4.080726e-002	0.0	5.835941e-001	6.577357e-002	0.0	9.927854e-001	-3.663094e-003	0.0	9.898939e-001	-4.619996e-003	0.0	5.991594e-001	6.455143e-002	0.0	7.190428e-001	-4.564024e-002	0.0	-1.697803e-003	9.753412e-004	0.0	9.865148e-001	-5.701526e-003	0.0	9.826561e-001	-6.904218e-003	0.0	-1.554235e-003	-6.334863e-003	0.0	6.455562e-001	-5.741755e-002	0.0	8.241660e-001	-2.874293e-002	0.0	7.995756e-001	-3.213614e-002	0.0	3.487638e-001	7.497615e-002	0.0	8.474770e-001	-2.612575e-002	0.0	2.474993e-001	7.343545e-002	0.0	8.694606e-001	-2.416412e-002	0.0	9.614017e-003	2.551885e-002	0.0	8.900177e-001	-2.259012e-002	0.0	7.690429e-002	-5.034157e-002	0.0	9.090665e-001	-2.105170e-002	0.0	-2.090826e-003	-3.105301e-003	0.0	9.422143e-001	-1.694807e-002	0.0	9.265018e-001	-1.923225e-002	0.0	1.790984e-002	-2.674296e-002	0.0	4.259708e-001	-7.771780e-002	0.0	8.586429e-001	-2.507417e-002	0.0	9.561314e-001	-1.419612e-002	0.0	9.783094e-001	-8.245184e-003	0.0	9.681808e-001	-1.117189e-002	0.0	1.580823e-001	-6.719661e-002	0.0	8.997389e-001	-2.183889e-002	0.0	7.605065e-001	-3.846380e-002	0.0	9.971193e-001	-2.061653e-003	0.0	5.995099e-001	-6.356948e-002	0.0	4.416981e-001	-7.700465e-002	0.0	5.367193e-001	-7.029276e-002	0.0	4.733186e-001	-7.522599e-002	0.0	5.050289e-001	-7.298735e-002	0.0	4.891616e-001	-7.416330e-002	0.0	1.247763e-001	-6.153861e-002	0.0	2.780808e-002	-3.224491e-002	0.0	3.947465e-001	-7.878139e-002	0.0	4.615805e-002	-4.024
[...]
POINT_DATA 5233

SCALARS Density float 1
LOOKUP_TABLE default
1.186138e+000	1.164945e+000	1.153658e+000	1.145523e+000	1.139054e+000	1.132820e+000	1.124785e+000	1.113625e+000	1.098178e+000	1.078263e+000	1.054639e+000	1.028955e+000	1.004160e+000	9.841987e-001	9.721214e-001	9.688812e-001	9.734986e-001	9.838903e-001	9.978860e-001	1.013604e+000	1.029531e+000	1.044377e+000	1.057203e+000	1.067347e+000	1.074476e+000	1.078450e+000	1.079352e+000	1.077322e+000	1.072686e+000	1.065772e+000	1.056943e+000	1.046588e+000	1.035060e+000	1.022746e+000	1.010023e+000	9.971460e-001	9.844638e-001	9.721505e-001	9.604363e-001	9.493767e-001	9.392292e-001	9.304045e-001	9.228722e-001	9.157955e-001	9.090923e-001	9.068457e-001	9.150294e-001	9.283676e-001	9.163158e-001	8.379824e-001	7.431347e-001	7.102695e-001	7.179882e-001	7.275275e-001	7.324129e-001	7.350990e-001	7.383799e-001	7.425747e-001	7.472449e-001	7.522231e-001	7.575311e-001	7.632066e-001	7.692095e-001	7.755339e-001	7.821679e-001	7.891413e-001	7.965038e-001	8.042350e-001	8.122526e-001	8.204797e-001	8.289055e-001	8.376460e-001	8.468634e-001	8.566326e-001	8.668861e-001	8.774688e-001	8.883495e-001	8.996014e-001	9.112183e-001	9.231597e-001	9.354597e-001	9.480848e-001	9.610667e-001	9.744191e-001	9.882062e-001	1.002558e+000	1.017591e+000	1.033559e+000	1.050842e+000	1.069789e+000	1.091083e+000	1.115598e+000	1.144092e+000	1.177600e+000	1.216262e+000	1.258620e+000	1.299081e+000	1.337642e+000	1.350798e+000	1.347984e+000	1.347515e+000	1.326957e+000	1.277900e+000	1.224296e+000	1.162711e+000	1.100650e+000	1.041480e+000	9.873232e-001	9.390490e-001	8.970951e-001	8.611309e-001	8.302222e-001	8.037198e-001	7.808676e-001	7.612289e-001	7.445528e-001	7.303128e-001	7.179234e-001	7.069990e-001	6.972096e-001	6.884374e-001	6.808732e-001	6.747416e-001	6.697915e-001	6.654904e-001	6.614066e-001	6.577567e-001	6.546857e-001	6.520602e-001	6.495804e-001	6.472573e-001	6.452815e-001	6.438771e-001	6.430347e-001	6.426423e-001	6.425015e-001	6.424550e-001	6.423898e-001	6.421892e-001	6.417979e-001	6.411871e-001	6.404068e-001	6.395094e-001	6.384364e-001	6.370945e-001	6.354777e-001	6.336561e-001	6.317524e-001	6.297886e-001	6.278975e-001	6.259471e-001	6.238678e-001	6.216553e-001	6.199594e-001	6.197334e-001	6.183653e-001	6.116809e-001	6.015497e-001	6.607745e-001	8.460781e-001	9.850963e-001	9.888628e-001	9.794586e-001	9.796117e-001	9.828836e-001	9.853758e-001	9.880746e-001	9.911223e-001	9.938979e-001	9.959901e-001	9.970609e-001	9.968739e-001	9.952613e-001	9.922895e-001	9.883054e-001	9.841798e-001	9.812909e-001	9.815660e-001	9.871284e-001	9.996385e-001	1.019253e+000	1.044165e+000	1.070987e+000	1.096305e+000	1.117520e+000	1.132669e+000	1.140490e+000	1.140587e+000	1.133450e+000	1.120908e+000	1.106457e+000	1.094488e+000	1.088719e+000	1.090826e+000	1.099617e+000	1.112663e+000	1.127562e+000	1.144388e+000	1.161669e+000	1.158012e+000	9.989987e-001	9.996824e-001	9.997274e-001	9.995892e-001	9.994850e-001	9.993563e-001	9.992027e-001	9.990109e-001	9.988027e-001	9.986583e-001	9.985818e-001	9.986632e-001	9.988654e-001	9.992457e-001	9.995646e-001	9.998256e-001	9.999753e-001	1.000071e+000	1.000135e+000	1.000165e+000	1.000185e+000	1.000194e+000	1.000203e+000	1.000212e+000	1.000220e+000	1.000232e+000	1.000252e+000	1.000277e+000	1.000312e+000	1.000364e+000	1.000423e+000	1.000520e+000	1.000615e+000	1.000777e+000	1.000928e+000	1.001114e+000	1.001312e+000	1.001395e+000	1.001422e+000	1.001321e+000	1.001204e+000	1.001030e+000	1.000866e+000	1.000704e+000	1.000557e+000	1.000383e+000	1.000247e+000	1.000243e+000	9.995057e-001	9.985336e-001	9.796838e-001	9.585028e-001	6.397065e-001	9.858106e-001	7.464669e-001	1.166633e+000	1.157167e+000	1.048483e+000	9.808207e-001	1.306670e+000	1.027828e+000	6.236786e-001	1.131694e+000	1.123935e+000	6.190904e-001	1.004524e+000	1.345388e+000	1.114415e+000	1.102180e+000	1.322748e+000	9.482178e-001	1.071887e+000	1.063993e+000	6.450142e-001	1.070114e+000	6.482382e-001	1.057853e+000	1.057222e+000	1.036385e+000	9.527266e-001	1.010201e+000	1.343559e+000	9.829962e-001	9.880713e-001	1.101733e+000	7.365659e-001	1.065264e+000	1.005508e+000	1.086655e+000	1.046996e+000	8.607005e-001	1.023446e+000	1.038634e+000	1.146750e+000	9.238678e-001	7.294149e-001	9.291821e-001	7.185782e-001	8.961092e-001	7.810106e-001	8.925154e-001	1.059565e+000	7.423941e-001	1.008818e+000	7.393416e-001	7.670541e-001	7.560931e-001	1.041375e+000	7.794170e-001	9.824974e-001	8.709271e-001	8.331190e-001	9.399130e-001	9.154147e-001	9.111201e-001	8.510116e-001	9.310479e-001	1.048065e+000	1.079511e+000	1.138952e+000	1.187033e+000	9.612474e-001	9.979098e-001	9.907623e-001	1.067993e+000	1.266549e+000	1.072287e+000	8.004336e-001	9.139459e-001	1.016331e+000	1.057040e+000	9.037753e-001	8.162693e-001	9.166391e-001	9.694294e-001	9.939280e-001	1.222070e+000	1.126740e+000	7.511116e-001	8.418714e-001	1.197961e+000	8.081854e-001	9.274796e-001	7.730754e-001	7.930642e-001	7.187332e-001	9.925699e-001	1.338419e+000	1.294104e+000	6.266241e-001	1.346032e+000	8.838847e-001	7.791400e-001	8.242710e-001	6.907201e-001	6.411619e-001	1.122469e+000	6.286594e-001	6.342655e-001	1.119917e+000	1.128523e+000	9.945195e-001	6.324016e-001	6.380275e-001	6.433869e-001	1.060602e+000	1.018990e+000	7.317927e-001	1.110997e+000	1.125088e+000	1.101179e+000	7.086705e-001	7.611080e-001	6.463882e-001	6.472524e-001	6.642224e-001	6.459389e-001	6.361920e-001	6.423757e-001	6.730677e-001	6.839271e-001	6.137826e-001	6.574674e-001	6.519195e-001	9.777352e-001	6.233681e-001	9.893889e-001	9.851352e-001	9.980149e-001	9.944425e-001	9.941188e-001	9.980066e-001	1.003960e+000	9.898275e-001	1.115833e+000	1.038629e+000	1.126434e+000	9.915867e-001	9.902728e-001	9.985410e-001	9.964595e-001	9.918869e-001	9.965889e-001	9.821777e-001	9.873789e-001	7.311541e-001	1.001491e+000	6.245931e-001	6.076695e-001	6.545488e-001	6.498041e-001	6.683783e-001	6.606776e-001	8.000482e-001	6.782616e-001	1.007095e+000	8.521242e-001	8.245987e-001	1.164749e+000	1.025247e+000	1.069036e+000	7.613931e-001	9.399523e-001	1.218570e+000	9.200909e-001	1.110278e+000	7.196254e-001	7.454761e-001	6.466855e-001	6.989812e-001	1.102463e+000	1.097118e+000	6.461809e-001	1.096828e+000	1.101712e+000	6.455845e-001	6.442654e-001	1.082216e+000	1.173884e+000	1.136332e+000	1.149619e+000	9.389528e-001	1.024564e+000	1.110768e+000	6.305019e-001	1.259008e+000	1.155151e+000	9.659671e-001	8.815763e-001	7.860787e-001	7.628443e-001	1.284196e+000	1.317761e+000	7.909966e-001	9.887312e-001	1.009719e+000	1.185171e+000	6.277632e-001	9.779208e-001	1.048652e+000	1.114397e+000	7.719624e-001	1.061714e+000	1.065433e+000	9.446326e-001	1.304258e+000	8.295711e-001	1.130296e+000	1.024829e+000	8.757570e-001	9.997340e-001	9.573060e-001	7.298082e-001	9.575094e-001	7.514651e-001	1.030426e+000	1.055413e+000	1.109620e+000	9.762923e-001	1.002723e+000	9.988668e-001	7.120716e-001	9.922142e-001	6.770005e-001	9.983870e-001	1.101337e+000	6.493115e-001	6.337903e-001	1.110499e+000	1.002063e+000	1.103235e+000	1.116379e+000	1.106766e+000	6.557572e-001	6.499693e-001	6.580323e-001	7.224814e-001	9.674253e-001	8.382121e-001	1.062815e+000	6.884627e-001	8.202074e-001	1.116240e+000	1.108778e+000	1.009401e+000	8.656615e-001	1.188005e+000	1.127041e+000	1.116913e+000	1.157068e+000	1.247504e+000	1.215682e+000	1.339289e+000	1.340204e+000	1.106420e+000	1.198360e+000	9.846062e-001	1.147033e+000	1.130900e+000	6.441957e-001	9.225315e-001	1.103988e+000	1.049402e+000	6.251718e-001	1.123145e+000	1.327924e+000	7.402024e-001	6.455804e-001	1.064723e+000	6.517550e-001	1.056600e+000	1.040534e+000	9.708074e-001	1.019837e+000	1.001265e+000	9.997250e-001	1.065122e+000	1.010047e+000	1.042099e+000	1.091348e+000	8.973201e-001	1.031232e+000	1.040468e+000	1.138629e+000	7.232186e-001	7.549186e-001	8.542721e-001	1.084923e+000	7.477474e-001	7.445387e-001	7.663151e-001	1.029997e+000	9.958947e-001	9.950264e-001	8.863556e-001	9.321806e-001	9.166441e-001	9.320696e-001	1.059791e+000	1.076510e+000	1.010557e+000	1.021235e+000	9.201976e-001	9.085764e-001	9.194796e-001	9.253866e-001	1.014126e+000	9.990507e-001	1.156411e+000	7.610488e-001	7.560614e-001	8.561626e-001	8.470631e-001	8.211780e-001	8.130971e-001	7.843163e-001	7.779532e-001	8.053646e-001	1.336836e+000	1.247597e+000	8.445701e-001	1.102670e+000	6.318493e-001	6.355589e-001	6.374663e-001	6.392313e-001	1.111915e+000	1.118119e+000	1.052911e+000	6.409864e-001	6.426537e-001	6.467828e-001	1.035741e+000	1.100470e+000	7.795911e-001	7.986213e-001	6.540245e-001	6.526842e-001	6.822914e-001	6.956397e-001	7.032988e-001	9.989250e-001	9.909082e-001	9.897014e-001	9.973068e-001	9.998300e-001	1.020763e+000	9.973247e-001	9.978312e-001	1.000228e+000	9.999626e-001	9.951726e-001	9.928516e-001	9.881525e-001	9.856310e-001	8.988947e-001	6.553111e-001	6.287957e-001	6.300551e-001	6.080787e-001	6.148480e-001	6.607806e-001	6.642009e-001	6.680717e-001	6.724151e-001	1.018217e+000	8.722317e-001	9.034980e-001	1.060654e+000	1.064066e+000	9.298845e-001	9.359642e-001	1.204219e+000	9.381471e-001	7.344660e-001	7.479048e-001	6.504993e-001	6.510534e-001	6.477564e-001	6.485762e-001	1.086825e+000	1.070497e+000	9.393480e-001	9.478469e-001	1.046887e+000	1.278360e+000	7.980108e-001	1.308551e+000	7.572717e-001	7.965342e-001	1.047815e+000	9.301164e-001	1.011872e+000	1.104173e+000	1.103053e+000	1.109159e+000	1.192576e+000	1.108040e+000	1.137892e+000	1.153649e+000	1.138049e+000	1.178931e+000	1.110061e+000	1.318618e+000	9.500737e-001	1.007185e+000	1.115018e+000	6.337352e-001	1.157462e+000	1.209498e+000	9.959914e-001	1.263769e+000	1.005950e+000	1.132310e+000	1.049241e+000	1.182410e+000	7.775320e-001	1.054314e+000	9.860044e-001	1.123348e+000	1.156662e+000	1.106277e+000	6.377593e-001	1.098666e+000	9.879830e-001	1.113552e+000	6.397193e-001	6.586182e-001	6.543068e-001	6.928009e-001	7.986709e-001	1.147209e+000	1.284484e+000	1.261472e+000	1.028740e+000	1.295800e+000	1.040859e+000	9.628779e-001	1.334443e+000	8.812007e-001	7.334362e-001	1.089347e+000	1.110107e+000	1.002605e+000	9.996733e-001	9.983397e-001	1.103988e+000	1.105460e+000	1.014169e+000	1.008145e+000	6.551703e-001	6.571808e-001	6.649889e-001	7.377321e-001	9.663478e-001	9.760133e-001	8.437924e-001	1.069011e+000	6.993751e-001	1.108719e+000	1.120222e+000	1.151750e+000	1.230693e+000	1.236903e+000	1.321731e+000	1.069911e+000	1.171148e+000	1.162564e+000	1.055566e+000	1.106051e+000	6.304616e-001	7.431740e-001	6.492351e-001	1.059194e+000	1.057604e+000	1.042752e+000	1.035042e+000	9.899503e-001	9.761908e-001	1.026869e+000	1.018827e+000	1.016035e+000	1.027178e+000	1.095701e+000	1.033592e+000	1.041130e+000	1.130500e+000	7.421125e-001	8.112750e-001	7.537177e-001	7.497410e-001	1.052057e+000	1.005798e+000	1.008695e+000	9.027732e-001	8.917549e-001	9.226109e-001	9.229936e-001	1.070102e+000	1.083582e+000	1.015695e+000	1.024868e+000	9.376750e-001	9.255696e-001	9.139911e-001	9.274463e-001	9.336879e-001	1.035475e+000	1.019574e+000	1.004344e+000	7.719558e-001	7.666404e-001	7.616804e-001	8.713912e-001	8.619607e-001	8.527691e-001	8.351004e-001	8.267068e-001	7.898273e-001	7.835038e-001	8.186373e-001	8.650469e-001	6.412712e-001	6.429948e-001	1.110005e+000	6.446738e-001	6.462342e-001	6.477514e-001	6.505870e-001	1.048351e+000	8.185184e-001	8.406880e-001	6.603112e-001	6.625245e-001	7.073703e-001	7.170158e-001	7.270330e-001	9.929179e-001	1.034790e+000	1.023079e+000	1.004706e+000	1.003102e+000	1.002676e+000	1.002481e+000	1.002022e+000	1.001103e+000	9.978926e-001	9.958042e-001	9.939626e-001	9.919343e-001	9.895255e-001	9.881719e-001	7.915172e-001	6.349850e-001	6.364024e-001	6.256947e-001	6.081286e-001	6.232105e-001	6.680388e-001	6.715338e-001	6.760271e-001	6.811120e-001	6.868913e-001	8.919199e-001	9.221192e-001	1.052931e+000	1.056752e+000	1.058828e+000	9.055265e-001	9.362267e-001	9.554462e-001	9.907979e-001	7.503392e-001	7.648766e-001	7.809291e-001	6.561103e-001	6.518060e-001	6.527382e-001	6.535071e-001	1.088898e+000	1.076631e+000	1.062748e+000	9.404656e-001	9.482904e-001	9.569879e-001	8.109263e-001	8.035562e-001	1.289033e+000	9.557084e-001	1.115581e+000	1.103123e+000	9.304921e-001	1.298260e+000	1.144839e+000	1.016717e+000	1.015535e+000	1.073352e+000	1.106301e+000	6.462684e-001	1.266742e+000	1.072800e+000	1.200799e+000	1.100363e+000	1.110271e+000	1.241641e+000	9.252700e-001	1.213831e+000	1.156835e+000	1.174069e+000	1.046598e+000	8.879396e-001	1.111934e+000	7.645728e-001	9.685129e-001	7.488949e-001	8.034382e-001	1.102949e+000	6.405584e-001	1.095489e+000	1.088487e+000	1.000022e+000	7.129437e-001	6.683357e-001	1.107679e+000	8.378656e-001	1.047505e+000	1.127789e+000	1.103890e+000	1.130108e+000	1.065854e+000	1.132270e+000	9.929982e-001	1.224811e+000	1.002132e+000	1.011275e+000	1.154430e+000	1.115622e+000	1.177476e+000	1.004915e+000	6.438347e-001	6.622727e-001	1.273187e+000	1.108940e+000	1.003836e+000	1.018798e+000	6.610161e-001	6.640685e-001	6.658377e-001	9.745951e-001	9.839662e-001	1.103734e+000	1.144635e+000	1.180391e+000	1.248029e+000	1.303704e+000	1.092056e+000	1.053617e+000	1.098786e+000	6.350128e-001	1.052799e+000	1.051080e+000	1.043126e+000	1.037516e+000	9.951684e-001	9.815947e-001	1.031557e+000	1.025555e+000	1.020354e+000	1.031033e+000	1.041721e+000	1.034797e+000	1.040247e+000	1.123094e+000	7.492292e-001	7.887420e-001	7.604323e-001	7.554236e-001	1.017320e+000	1.022584e+000	9.090027e-001	8.977259e-001	9.288469e-001	1.077679e+000	1.088786e+000	1.019108e+000	1.028090e+000	9.434014e-001	9.315760e-001	9.203022e-001	9.291075e-001	9.350245e-001	1.056650e+000	1.040175e+000	1.024182e+000	1.009212e+000	7.846374e-001	7.789802e-001	7.738254e-001	7.688316e-001	8.783403e-001	8.688938e-001	8.595743e-001	8.505804e-001	8.419271e-001	7.904758e-001	7.968361e-001	8.335678e-001	6.477903e-001	1.104001e+000	1.103059e+000	6.493678e-001	6.508134e-001	6.523116e-001	6.536388e-001	6.551452e-001	8.605157e-001	8.852701e-001	6.707878e-001	6.740926e-001	7.213209e-001	7.314323e-001	7.430806e-001	7.552074e-001	1.046112e+000	1.035427e+000	1.026044e+000	1.013307e+000	1.009956e+000	1.007636e+000	1.006354e+000	1.004342e+000	1.003026e+000	1.001617e+000	9.980655e-001	9.960031e-001	9.939141e-001	9.919371e-001	9.904340e-001	9.935594e-001	1.001242e+000	6.434640e-001	6.413867e-001	7.101347e-001	6.335703e-001	6.225568e-001	6.236889e-001	6.772070e-001	6.813174e-001	6.854271e-001	6.911379e-001	6.972679e-001	7.047525e-001	9.110487e-001	9.389797e-001	1.049128e+000	1.052448e+000	1.053313e+000	8.752108e-001	9.278293e-001	9.360164e-001	9.704123e-001	1.003409e+000	1.036960e+000	7.679160e-001	7.825972e-001	7.996849e-001	8.180060e-001	6.564160e-001	6.577571e-001	6.587637e-001	6.596978e-001	1.057654e+000	1.079417e+000	1.069079e+000	9.410644e-001	9.492608e-001	9.569163e-001	9.660897e-001	8.255552e-001	8.178158e-001	8.105079e-001	1.151358e+000	1.112718e+000	1.063589e+000	1.151138e+000	1.172084e+000	1.010289e+000	9.618097e-001	1.192582e+000	1.100444e+000	1.233579e+000	1.093594e+000	8.963379e-001	7.376561e-001	1.108067e+000	1.199261e+000	1.273574e+000	1.315079e+000	1.315594e+000	1.307147e+000	1.250503e+000	1.125558e+000	6.692237e-001	1.073712e+000	1.109020e+000	1.025510e+000	1.041008e+000	7.718032e-001	1.107132e+000	1.054420e+000	1.080507e+000	6.474365e-001	6.509386e-001	8.982483e-001	9.985085e-001	6.530130e-001	9.388768e-001	6.662757e-001	1.104283e+000	9.743849e-001	1.141598e+000	1.101117e+000	1.309496e+000	1.168194e+000	1.158841e+000	1.022587e+000	1.076729e+000	1.269105e+000	1.075961e+000	1.213287e+000	1.092290e+000	1.224318e+000	1.153774e+000	1.161240e+000	1.131589e+000	8.033814e-001	8.115966e-001	1.102269e+000	6.421443e-001	1.087218e+000	1.101174e+000	9.944281e-001	1.251088e+000	6.703262e-001	6.741101e-001	6.756407e-001	9.778558e-001	1.139104e+000	1.169887e+000	1.282482e+000	1.112871e+000	1.047436e+000	1.045821e+000	1.042270e+000	1.038745e+000	9.872220e-001	1.000803e+000	1.034578e+000	1.030002e+000	1.026874e+000	1.024097e+000	1.043898e+000	1.053462e+000	1.031974e+000	1.116011e+000	7.599935e-001	7.813768e-001	7.660953e-001	7.644905e-001	1.029217e+000	1.035502e+000	9.150806e-001	9.037412e-001	1.083555e+000	1.092771e+000	1.022503e+000	9.492846e-001	9.371544e-001	9.284404e-001	9.357437e-001	1.060503e+000	1.044461e+000	1.028803e+000	1.014703e+000	7.987307e-001	7.913635e-001	7.872845e-001	7.804207e-001	7.771660e-001	8.850622e-001	8.772302e-001	8.659755e-001	8.587325e-001	8.483624e-001	1.099659e+000	1.098358e+000	1.096015e+000	6.540673e-001	6.561419e-001	6.567507e-001	6.587528e-001	6.593137e-001	8.800995e-001	9.045717e-001	6.804227e-001	6.825148e-001	7.447024e-001	7.596846e-001	7.737369e-001	1.045006e+000	1.035768e+000	1.028572e+000	1.021466e+000	1.017237e+000	1.012793e+000	1.010443e+000	1.007222e+000	1.004992e+000	1.002329e+000	9.923862e-001	9.937120e-001	1.017861e+000	6.515271e-001	6.295146e-001	6.883574e-001	6.908827e-001	6.980055e-001	7.013390e-001	7.105351e-001	7.180830e-001	7.274576e-001	9.298916e-001	9.555556e-001	1.046245e+000	1.048730e+000	1.047627e+000	8.481578e-001	9.221223e-001	9.836687e-001	1.014651e+000	1.044842e+000	7.875985e-001	8.023373e-001	8.193316e-001	8.393233e-001	8.592371e-001	6.613448e-001	6.620066e-001	6.641842e-001	6.655723e-001	1.072957e+000	1.063260e+000	9.450559e-001	9.611328e-001	8.416932e-001	8.319611e-001	8.259268e-001	8.169947e-001	1.150884e+000	1.133602e+000	1.183991e+000	1.284450e+000	1.166839e+000	1.079540e+000	1.101737e+000	1.231433e+000	1.089283e+000	1.128319e+000	1.095741e+000	1.264075e+000	1.094665e+000	1.165691e+000	6.737596e-001	1.151590e+000	1.133625e+000	1.208213e+000	1.147369e+000	1.071073e+000	9.352951e-001	1.099796e+000	8.148180e-001	1.034746e+000	1.029808e+000	9.560697e-001	9.675337e-001	8.981276e-001	1.234572e+000	7.772495e-001	9.937761e-001	9.809273e-001	7.690988e-001	1.096486e+000	1.054525e+000	1.252099e+000	1.106267e+000	1.062581e+000	1.145865e+000	1.097984e+000	1.312347e+000	1.250263e+000	1.103153e+000	1.015177e+000	6.584645e-001	6.599969e-001	1.104278e+000	1.154766e+000	1.115208e+000	1.288870e+000	1.162242e+000	1.079287e+000	1.219276e+000	1.201995e+000	6.513249e-001	1.111924e+000	1.085603e+000	1.079620e+000	6.553888e-001	6.793496e-001	6.865312e-001	1.002481e+000	1.160221e+000	1.185531e+000	1.130145e+000	1.042229e+000	1.037671e+000	1.006196e+000	1.032399e+000	1.029761e+000	1.054252e+000	1.110042e+000	7.808313e-001	1.040015e+000	1.046554e+000	9.162532e-001	1.087779e+000	1.024895e+000	1.032959e+000	9.503032e-001	9.343382e-001	9.402271e-001	1.063826e+000	1.047403e+000	1.032488e+000	1.021850e+000	8.024854e-001	7.915888e-001	7.842342e-001	8.789118e-001	8.607409e-001	1.094766e+000	1.092505e+000	6.624946e-001	6.648588e-001	9.220612e-001	6.953898e-001	7.920360e-001	1.004265e+000	1.039250e+000	1.025971e+000	1.016567e+000	1.011111e+000	1.007387e+000	1.000859e+000	9.944256e-001	9.889619e-001	1.006087e+000	9.941427e-001	7.817209e-001	6.413903e-001	6.337766e-001	7.062077e-001	7.190996e-001	7.333738e-001	7.398846e-001	7.540471e-001	9.474880e-001	9.715000e-001	1.039605e+000	1.043558e+000	1.043414e+000	8.235887e-001	8.950144e-001	9.960514e-001	1.023725e+000	1.051670e+000	1.078535e+000	8.085520e-001	8.233620e-001	8.397440e-001	8.594048e-001	8.825644e-001	8.976321e-001	6.674998e-001	6.709721e-001	1.074839e+000	1.067063e+000	9.429626e-001	9.723849e-001	9.877916e-001	8.439836e-001	8.286712e-001	1.107193e+000	1.151644e+000	1.146930e+000	1.120136e+000	1.044328e+000	1.101241e+000	1.149004e+000	1.123564e+000	1.191159e+000	1.143265e+000	1.134439e+000	1.115666e+000	1.151606e+000	1.232102e+000	1.246174e+000	1.089690e+000	1.018125e+000	6.801834e-001	1.112079e+000	1.033836e+000	1.110738e+000	9.279294e-001	1.128756e+000	1.175514e+000	7.923146e-001	1.043492e+000	9.670812e-001	9.388931e-001	1.076680e+000	1.083862e+000	1.095172e+000	1.081547e+000	1.146237e+000	1.096384e+000	1.098444e+000	1.083543e+000	6.942746e-001	6.444794e-001	9.956980e-001	1.011099e+000	1.130476e+000	1.135640e+000	1.292908e+000	1.069381e+000	1.086719e+000	1.161771e+000	1.091008e+000	1.213699e+000	1.159131e+000	9.194403e-001	1.233024e+000	1.001412e+000	9.862877e-001	1.094417e+000	1.264298e+000	1.062247e+000	1.097806e+000	1.008106e+000	1.268703e+000	1.161871e+000	1.025596e+000	1.219690e+000	1.205931e+000	6.