# vtk DataFile Version 3.0
vtk output
ASCII
DATASET UNSTRUCTURED_GRID
POINTS 5233 float
9.997500e-001	-3.633283e-005	0.0	9.990000e-001	-1.454973e-004	0.0	9.977600e-001	-3.277734e-004	0.0	9.960200e-001	-5.912987e-004	0.0	9.937800e-001	-9.516945e-004	0.0	9.910500e-001	-1.433381e-003	0.0	9.878400e-001	-2.066617e-003	0.0	9.841300e-001	-2.882761e-003	0.0	9.799500e-001	-3.880728e-003	0.0	9.752800e-001	-5.033709e-003	0.0	9.701500e-001	-6.262359e-003	0.0	9.645400e-001	-7.472397e-003	0.0	9.584700e-001	-8.561486e-003	0.0	9.519400e-001	-9.465057e-003	0.0	9.449600e-001	-1.017166e-002	0.0	9.375400e-001	-1.072746e-002	0.0	9.296900e-001	-1.122002e-002	0.0	9.214000e-001	-1.175405e-002	0.0	9.127000e-001	-1.242345e-002	0.0	9.035800e-001	-1.330040e-002	0.0	8.940600e-001	-1.442363e-002	0.0	8.841500e-001	-1.580275e-002	0.0	8.738500e-001	-1.742505e-002	0.0	8.631800e-001	-1.925801e-002	0.0	8.521600e-001	-2.125845e-002	0.0	8.407700e-001	-2.338590e-002	0.0	8.290500e-001	-2.558819e-002	0.0	8.170100e-001	-2.782116e-002	0.0	8.046400e-001	-3.004898e-002	0.0	7.919700e-001	-3.223475e-002	0.0	7.790100e-001	-3.435252e-002	0.0	7.657800e-001	-3.638235e-002	0.0	7.522800e-001	-3.831472e-002	0.0	7.385200e-001	-4.014495e-002	0.0	7.245300e-001	-4.187147e-002	0.0	7.103200e-001	-4.349972e-002	0.0	6.958900e-001	-4.503896e-002	0.0	6.812700e-001	-4.649667e-002	0.0	6.664700e-001	-4.788296e-002	0.0	6.515000e-001	-4.920721e-002	0.0	6.363800e-001	-5.047665e-002	0.0	6.211300e-001	-5.169689e-002	0.0	6.057600e-001	-5.287242e-002	0.0	5.902800e-001	-5.400577e-002	0.0	5.747100e-001	-5.509688e-002	0.0	5.590600e-001	-5.614487e-002	0.0	5.433600e-001	-5.714626e-002	0.0	5.276100e-001	-5.809854e-002	0.0	5.118400e-001	-5.899670e-002	0.0	4.960500e-001	-5.983710e-002	0.0	4.802700e-001	-6.061432e-002	0.0	4.645100e-001	-6.132415e-002	0.0	4.487800e-001	-6.196257e-002	0.0	4.331100e-001	-6.252520e-002	0.0	4.175000e-001	-6.300931e-002	0.0	4.019700e-001	-6.341197e-002	0.0	3.865400e-001	-6.373096e-002	0.0	3.712300e-001	-6.396476e-002	0.0	3.560400e-001	-6.411271e-002	0.0	3.409900e-001	-6.417432e-002	0.0	3.261100e-001	-6.414975e-002	0.0	3.114000e-001	-6.403966e-002	0.0	2.968700e-001	-6.384486e-002	0.0	2.825500e-001	-6.356679e-002	0.0	2.684500e-001	-6.320688e-002	0.0	2.545700e-001	-6.276623e-002	0.0	2.409400e-001	-6.224684e-002	0.0	2.275700e-001	-6.165011e-002	0.0	2.144700e-001	-6.097724e-002	0.0	2.016600e-001	-6.022974e-002	0.0	1.891400e-001	-5.940771e-002	0.0	1.769300e-001	-5.851210e-002	0.0	1.650400e-001	-5.754292e-002	0.0	1.534900e-001	-5.650070e-002	0.0	1.422900e-001	-5.538485e-002	0.0	1.314400e-001	-5.419328e-002	0.0	1.209500e-001	-5.292430e-002	0.0	1.108500e-001	-5.157864e-002	0.0	1.011300e-001	-5.015165e-002	0.0	9.181000e-002	-4.864238e-002	0.0	8.290000e-002	-4.704848e-002	0.0	7.440000e-002	-4.536552e-002	0.0	6.633000e-002	-4.359288e-002	0.0	5.869000e-002	-4.172594e-002	0.0	5.149000e-002	-3.976224e-002	0.0	4.474000e-002	-3.769982e-002	0.0	3.844000e-002	-3.553384e-002	0.0	3.260000e-002	-3.326288e-002	0.0	2.723000e-002	-3.088673e-002	0.0	2.232000e-002	-2.839618e-002	0.0	1.790000e-002	-2.580323e-002	0.0	1.395000e-002	-2.309357e-002	0.0	1.049000e-002	-2.027833e-002	0.0	7.520000e-003	-1.735883e-002	0.0	5.040000e-003	-1.433772e-002	0.0	3.050000e-003	-1.121909e-002	0.0	1.560000e-003	-8.032735e-003	0.0	5.600000e-004	-4.777324e-003	0.0	6.000000e-005	-1.517542e-003	0.0	0.000000e+000	0.000000e+000	0.0	6.000000e-005	1.443928e-003	0.0	5.600000e-004	4.529068e-003	0.0	1.560000e-003	7.661797e-003	0.0	3.050000e-003	1.078967e-002	0.0	5.040000e-003	1.390861e-002	0.0	7.520000e-003	1.697914e-002	0.0	1.049000e-002	1.998576e-002	0.0	1.395000e-002	2.291453e-002	0.0	1.790000e-002	2.575363e-002	0.0	2.232000e-002	2.848202e-002	0.0	2.723000e-002	3.110676e-002	0.0	3.260000e-002	3.360866e-002	0.0	3.844000e-002	3.599232e-002	0.0	4.474000e-002	3.825428e-002	0.0	5.149000e-002	4.039367e-002	0.0	5.869000e-002	4.241432e-002	0.0	6.633000e-002	4.431808e-002	0.0	7.440000e-002	4.610823e-002	0.0	8.290000e-002	4.779089e-002	0.0	9.181000e-002	4.936873e-002	0.0	1.011300e-001	5.084861e-002	0.0	1.108500e-001	5.223558e-002	0.0	1.209500e-001	5.353346e-002	0.0	1.314400e-001	5.474967e-002	0.0	1.422900e-001	5.588640e-002	0.0	1.534900e-001	5.694803e-002	0.0	1.650400e-001	5.793914e-002	0.0	1.769300e-001	5.886268e-002	0.0	1.891400e-001	5.972033e-002	0.0	2.016600e-001	6.051407e-002	0.0	2.144700e-001	6.124477e-002	0.0	2.275700e-001	6.191399e-002	0.0	2.409400e-001	6.252176e-002	0.0	2.545700e-001	6.306835e-002	0.0	2.684500e-001	6.355371e-002	0.0	2.825500e-001	6.397705e-002	0.0	2.968700e-001	6.433850e-002	0.0	3.114000e-001	6.463772e-002	0.0	3.261100e-001	6.487402e-002	0.0	3.409900e-001	6.504728e-002	0.0	3.560400e-001	6.515738e-002	0.0	3.712300e-001	6.520399e-002	0.0	3.865400e-001	6.518705e-002	0.0	4.019700e-001	6.510648e-002	0.0	4.175000e-001	6.496216e-002	0.0	4.331100e-001	6.475403e-002	0.0	4.487800e-001	6.448209e-002	0.0	4.645100e-001	6.414589e-002	0.0	4.802700e-001	6.374556e-002	0.0	4.960500e-001	6.328081e-002	0.0	5.118400e-001	6.275135e-002	0.0	5.276100e-001	6.215770e-002	0.0	5.433600e-001	6.149949e-002	0.0	5.590600e-001	6.077776e-002	0.0	5.747100e-001	5.999256e-002	0.0	5.902800e-001	5.914574e-002	0.0	6.057600e-001	5.823854e-002	0.0	6.211300e-001	5.727315e-002	0.0	6.363800e-001	5.625148e-002	0.0	6.515000e-001	5.517569e-002	0.0	6.664700e-001	5.404882e-002	0.0	6.812700e-001	5.287412e-002	0.0	6.958900e-001	5.165413e-002	0.0	7.103200e-001	5.039124e-002	0.0	7.245300e-001	4.908947e-002	0.0	7.385200e-001	4.774988e-002	0.0	7.522800e-001	4.637386e-002	0.0	7.657800e-001	4.496414e-002	0.0	7.790100e-001	4.352041e-002	0.0	7.919700e-001	4.203946e-002	0.0	8.046400e-001	4.051774e-002	0.0	8.170100e-001	3.894698e-002	0.0	8.290500e-001	3.731695e-002	0.0	8.407700e-001	3.560645e-002	0.0	8.521600e-001	3.379044e-002	0.0	8.631800e-001	3.184380e-002	0.0	8.738500e-001	2.972840e-002	0.0	8.841500e-001	2.741489e-002	0.0	8.940600e-001	2.488511e-002	0.0	9.035800e-001	2.213681e-002	0.0	9.127000e-001	1.920224e-002	0.0	9.214000e-001	1.615908e-002	0.0	9.296900e-001	1.311854e-002	0.0	9.375400e-001	1.024039e-002	0.0	9.449600e-001	7.679885e-003	0.0	9.519400e-001	5.574831e-003	0.0	9.584700e-001	4.001258e-003	0.0	9.645400e-001	2.949933e-003	0.0	9.701500e-001	2.328229e-003	0.0	9.752800e-001	1.993829e-003	0.0	9.799500e-001	1.795086e-003	0.0	9.841300e-001	1.617427e-003	0.0	9.878400e-001	1.398868e-003	0.0	9.910500e-001	1.132446e-003	0.0	9.937800e-001	8.409625e-004	0.0	9.960200e-001	5.602994e-004	0.0	9.977600e-001	3.219896e-004	0.0	9.990000e-001	1.449675e-004	0.0	9.997500e-001	3.632442e-005	0.0	1.000000e+000	0.000000e+000	0.0	1.984229e+001	2.506660e+000	0.0	1.937166e+001	4.973800e+000	0.0	1.859553e+001	7.362490e+000	0.0	1.752613e+001	9.635070e+000	0.0	1.618034e+001	1.175571e+001	0.0	1.457937e+001	1.369094e+001	0.0	1.274848e+001	1.541027e+001	0.0	1.071654e+001	1.688656e+001	0.0	8.515590e+000	1.809654e+001	0.0	6.180340e+000	1.902113e+001	0.0	3.747630e+000	1.964575e+001	0.0	1.255810e+000	1.996053e+001	0.0	-1.255810e+000	1.996053e+001	0.0	-3.747630e+000	1.964574e+001	0.0	-6.180340e+000	1.902113e+001	0.0	-8.515590e+000	1.809654e+001	0.0	-1.071654e+001	1.688656e+001	0.0	-1.274848e+001	1.541026e+001	0.0	-1.457937e+001	1.369094e+001	0.0	-1.618034e+001	1.175570e+001	0.0	-1.752613e+001	9.635070e+000	0.0	-1.859553e+001	7.362490e+000	0.0	-1.937166e+001	4.973800e+000	0.0	-1.984229e+001	2.506660e+000	0.0	-2.000000e+001	0.000000e+000	0.0	-1.984229e+001	-2.506670e+000	0.0	-1.937166e+001	-4.973800e+000	0.0	-1.859553e+001	-7.362490e+000	0.0	-1.752613e+001	-9.635080e+000	0.0	-1.618034e+001	-1.175571e+001	0.0	-1.457937e+001	-1.369094e+001	0.0	-1.274848e+001	-1.541027e+001	0.0	-1.071653e+001	-1.688656e+001	0.0	-8.515580e+000	-1.809654e+001	0.0	-6.180340e+000	-1.902113e+001	0.0	-3.747620e+000	-1.964575e+001	0.0	-1.255810e+000	-1.996053e+001	0.0	1.255810e+000	-1.996053e+001	0.0	3.747630e+000	-1.964574e+001	0.0	6.180340e+000	-1.902113e+001	0.0	8.515590e+000	-1.809654e+001	0.0	1.071654e+001	-1.688656e+001	0.0	1.274848e+001	-1.541026e+001	0.0	1.457937e+001	-1.369094e+001	0.0	1.618034e+001	-1.175570e+001	0.0	1.752614e+001	-9.635070e+000	0.0	1.859553e+001	-7.362490e+000	0.0	1.937166e+001	-4.973790e+000	0.0	1.984229e+001	-2.506660e+000	0.0	2.000000e+001	0.000000e+000	0.0	6.064957e-002	-4.968123e-002	0.0	6.603429e-001	-6.211873e-002	0.0	4.256709e-001	7.919426e-002	0.0	6.898909e-001	6.558089e-002	0.0	3.791964e-001	-7.787665e-002	0.0	9.994573e-001	-7.342015e-004	0.0	9.985368e-001	-1.337109e-003	0.0	7.740246e-001	-4.721741e-002	0.0	6.900347e-001	-5.896043e-002	0.0	-1.748780e-003	7.065848e-003	0.0	7.469912e-001	-5.153918e-002	0.0	5.834437e-001	7.378469e-002	0.0	9.927826e-001	-3.735623e-003	0.0	9.898978e-001	-4.739426e-003	0.0	5.990167e-001	7.281871e-002	0.0	7.189604e-001	-5.544595e-002	0.0	-1.775574e-003	7.970462e-004	0.0	9.865281e-001	-5.892032e-003	0.0	9.826796e-001	-7.187285e-003	0.0	-1.761197e-003	-7.340498e-003	0.0	6.452514e-001	-6.358213e-002	0.0	8.246061e-001	-3.770300e-002	0.0	7.999262e-001	-4.256205e-002	0.0	3.485568e-001	7.897694e-002	0.0	8.479388e-001	-3.290717e-002	0.0	2.473150e-001	7.543762e-002	0.0	8.698735e-001	-2.845258e-002	0.0	9.608599e-003	2.454813e-002	0.0	8.903238e-001	-2.462659e-002	0.0	7.696959e-002	-5.405410e-002	0.0	9.092449e-001	-2.157991e-002	0.0	-2.192548e-003	-3.608523e-003	0.0	9.422451e-001	-1.704175e-002	0.0	9.265788e-001	-1.919307e-002	0.0	1.766158e-002	-3.106419e-002	0.0	4.258344e-001	-7.704791e-002	0.0	8.590890e-001	-3.061515e-002	0.0	9.561611e-001	-1.461038e-002	0.0	9.783419e-001	-8.630868e-003	0.0	9.682196e-001	-1.169555e-002	0.0	1.582921e-001	-6.772845e-002	0.0	8.999806e-001	-2.300589e-002	0.0	7.606435e-001	-4.942730e-002	0.0	9.971115e-001	-2.091413e-003	0.0	5.991805e-001	-6.757123e-002	0.0	4.415427e-001	-7.658136e-002	0.0	5.364407e-001	-7.201869e-002	0.0	4.731242e-001	-7.538152e-002	0.0	5.047925e-001	-7.385040e-002	0.0	4.889466e-001	-7.465473e-002	0.0	1.249621e-001	-6.327682e-002	0.0	2.761717e-002	-3.694504e-002	0.0	3.946489e-001	-7.769843e-002	0.0	4.607734e-002	-4.491
[...]
POINT_DATA 5233

SCALARS Density float 1
LOOKUP_TABLE default
1.203593e+000	1.183442e+000	1.174060e+000	1.167707e+000	1.162605e+000	1.156727e+000	1.147363e+000	1.132689e+000	1.111500e+000	1.084233e+000	1.052882e+000	1.023704e+000	1.006478e+000	1.005842e+000	1.018819e+000	1.038706e+000	1.059240e+000	1.075819e+000	1.086558e+000	1.091399e+000	1.090923e+000	1.085972e+000	1.077368e+000	1.065929e+000	1.052320e+000	1.037221e+000	1.021228e+000	1.004911e+000	9.888494e-001	9.736254e-001	9.597796e-001	9.476919e-001	9.375475e-001	9.294877e-001	9.234314e-001	9.192005e-001	9.163956e-001	9.145851e-001	9.133282e-001	9.122755e-001	9.111152e-001	9.096644e-001	9.077632e-001	9.053544e-001	9.024046e-001	8.989637e-001	8.950894e-001	8.908540e-001	8.862253e-001	8.812115e-001	8.759333e-001	8.706619e-001	8.655263e-001	8.603646e-001	8.548269e-001	8.488120e-001	8.426784e-001	8.371760e-001	8.329247e-001	8.302437e-001	8.290954e-001	8.292023e-001	8.302257e-001	8.318505e-001	8.338588e-001	8.360888e-001	8.384818e-001	8.409538e-001	8.434227e-001	8.457626e-001	8.479297e-001	8.499993e-001	8.521631e-001	8.545055e-001	8.570394e-001	8.597217e-001	8.627115e-001	8.662611e-001	8.705161e-001	8.756161e-001	8.817793e-001	8.891770e-001	8.980746e-001	9.086947e-001	9.213558e-001	9.364843e-001	9.544234e-001	9.756368e-001	1.000747e+000	1.030139e+000	1.064290e+000	1.103396e+000	1.146747e+000	1.193213e+000	1.240561e+000	1.285330e+000	1.320501e+000	1.346413e+000	1.350754e+000	1.341834e+000	1.337016e+000	1.312871e+000	1.261082e+000	1.209485e+000	1.152222e+000	1.094949e+000	1.040170e+000	9.892979e-001	9.429154e-001	9.015717e-001	8.652842e-001	8.335499e-001	8.060632e-001	7.823008e-001	7.619836e-001	7.449641e-001	7.307786e-001	7.188589e-001	7.087995e-001	7.002275e-001	6.929666e-001	6.871427e-001	6.828959e-001	6.798900e-001	6.775220e-001	6.753335e-001	6.734708e-001	6.720110e-001	6.707623e-001	6.694541e-001	6.681426e-001	6.670330e-001	6.663054e-001	6.659094e-001	6.657136e-001	6.655341e-001	6.652525e-001	6.648031e-001	6.641162e-001	6.631728e-001	6.619811e-001	6.606272e-001	6.591625e-001	6.575447e-001	6.556796e-001	6.536031e-001	6.513489e-001	6.490709e-001	6.467637e-001	6.445700e-001	6.424066e-001	6.402183e-001	6.378980e-001	6.353965e-001	6.328073e-001	6.301624e-001	6.274536e-001	6.247251e-001	6.219609e-001	6.198282e-001	6.185735e-001	6.167231e-001	6.084099e-001	5.950511e-001	6.252256e-001	7.825314e-001	9.638202e-001	9.860449e-001	9.706666e-001	9.618041e-001	9.591581e-001	9.556737e-001	9.516548e-001	9.485949e-001	9.470826e-001	9.480319e-001	9.528836e-001	9.632294e-001	9.801128e-001	1.003548e+000	1.031977e+000	1.062667e+000	1.092571e+000	1.119320e+000	1.141000e+000	1.156335e+000	1.164654e+000	1.165854e+000	1.160417e+000	1.149837e+000	1.136910e+000	1.125431e+000	1.118706e+000	1.118457e+000	1.124089e+000	1.133875e+000	1.145695e+000	1.159885e+000	1.173436e+000	1.172366e+000	9.990592e-001	9.996454e-001	9.996471e-001	9.994782e-001	9.993374e-001	9.991668e-001	9.989651e-001	9.987152e-001	9.984464e-001	9.982582e-001	9.981564e-001	9.982528e-001	9.984997e-001	9.989717e-001	9.993689e-001	9.996977e-001	9.998890e-001	1.000014e+000	1.000100e+000	1.000143e+000	1.000173e+000	1.000188e+000	1.000201e+000	1.000214e+000	1.000225e+000	1.000240e+000	1.000264e+000	1.000294e+000	1.000335e+000	1.000397e+000	1.000467e+000	1.000585e+000	1.000702e+000	1.000904e+000	1.001098e+000	1.001347e+000	1.001618e+000	1.001745e+000	1.001798e+000	1.001679e+000	1.001536e+000	1.001316e+000	1.001109e+000	1.000904e+000	1.000717e+000	1.000502e+000	1.000339e+000	1.000302e+000	9.995844e-001	9.986568e-001	9.206273e-001	9.161337e-001	6.582994e-001	6.167385e-001	8.438262e-001	1.184105e+000	1.176153e+000	9.589006e-001	9.196418e-001	1.295640e+000	9.389877e-001	6.354074e-001	1.153569e+000	1.145293e+000	6.327513e-001	9.262981e-001	1.339315e+000	1.133948e+000	1.118431e+000	1.332594e+000	9.146980e-001	1.014321e+000	9.849837e-001	6.664424e-001	1.042854e+000	6.707244e-001	1.066516e+000	1.055741e+000	1.080835e+000	8.994812e-001	1.081132e+000	1.347680e+000	1.035276e+000	1.064164e+000	1.077906e+000	8.614785e-001	1.055565e+000	1.021115e+000	1.098446e+000	1.049979e+000	8.602113e-001	1.083025e+000	9.480826e-001	1.167078e+000	9.089917e-001	8.666002e-001	8.955462e-001	8.764632e-001	8.866111e-001	8.816024e-001	8.699015e-001	1.015928e+000	8.496877e-001	9.500902e-001	8.557856e-001	8.335529e-001	8.356419e-001	9.906211e-001	8.357294e-001	1.050126e+000	8.631730e-001	8.526846e-001	8.913475e-001	8.787409e-001	9.030792e-001	8.575206e-001	9.112671e-001	1.075141e+000	1.044964e+000	1.160367e+000	1.195767e+000	9.638547e-001	1.074815e+000	1.023945e+000	1.074757e+000	1.254851e+000	1.028939e+000	8.423215e-001	8.994912e-001	9.317483e-001	9.713071e-001	8.739333e-001	8.475637e-001	9.062717e-001	9.176858e-001	9.341684e-001	1.237279e+000	1.114501e+000	8.389879e-001	8.550801e-001	1.214478e+000	8.449112e-001	8.845052e-001	8.342696e-001	8.398882e-001	8.714801e-001	9.223844e-001	1.328505e+000	1.309515e+000	6.428983e-001	1.343984e+000	8.872389e-001	7.800916e-001	8.264920e-001	6.966609e-001	6.602618e-001	1.141738e+000	6.451059e-001	6.515949e-001	1.146664e+000	1.152633e+000	9.842147e-001	6.493974e-001	6.561441e-001	6.636231e-001	1.078806e+000	1.026929e+000	7.328118e-001	1.139037e+000	1.148281e+000	1.122934e+000	7.115494e-001	7.617376e-001	6.695469e-001	6.702211e-001	6.795758e-001	6.684586e-001	6.539033e-001	6.620351e-001	6.846855e-001	6.916899e-001	6.272240e-001	6.759186e-001	6.727429e-001	6.224841e-001	6.380271e-001	9.268175e-001	6.034914e-001	9.655640e-001	9.822420e-001	9.564932e-001	9.600643e-001	1.003405e+000	9.618174e-001	1.138334e+000	1.052843e+000	1.151768e+000	9.576136e-001	9.703937e-001	9.633235e-001	9.575110e-001	1.001854e+000	9.683444e-001	6.041242e-001	6.637401e-001	6.246539e-001	6.216231e-001	6.405206e-001	6.300265e-001	6.742634e-001	6.715568e-001	6.819071e-001	6.776725e-001	8.015710e-001	6.879314e-001	1.008083e+000	8.550166e-001	8.501910e-001	1.157106e+000	1.030159e+000	9.994847e-001	8.338949e-001	8.912780e-001	1.208226e+000	9.234424e-001	1.105753e+000	7.213989e-001	7.461147e-001	6.698756e-001	7.032701e-001	1.131206e+000	1.125592e+000	6.690996e-001	1.123874e+000	1.126466e+000	6.675913e-001	6.650978e-001	1.102715e+000	1.184371e+000	1.153000e+000	1.164039e+000	9.131241e-001	9.687910e-001	1.132783e+000	6.472243e-001	1.276461e+000	1.154249e+000	9.091509e-001	8.663922e-001	8.376541e-001	7.637633e-001	1.276046e+000	1.310314e+000	8.422411e-001	9.258825e-001	1.071702e+000	1.189308e+000	6.409900e-001	9.230245e-001	9.702335e-001	1.133448e+000	8.390509e-001	1.046182e+000	1.021867e+000	9.014528e-001	1.314337e+000	8.551037e-001	1.117542e+000	1.039537e+000	8.698717e-001	9.296645e-001	9.188857e-001	8.729193e-001	9.102152e-001	8.515473e-001	1.074378e+000	9.823430e-001	1.106417e+000	9.781852e-001	6.256383e-001	9.655197e-001	7.161711e-001	6.210979e-001	6.898456e-001	9.784995e-001	1.127198e+000	6.713459e-001	6.505126e-001	1.132164e+000	9.898682e-001	1.127601e+000	1.139026e+000	1.133335e+000	6.772035e-001	6.724854e-001	6.784844e-001	7.253328e-001	9.208129e-001	8.579628e-001	1.061732e+000	6.975394e-001	8.217403e-001	1.141076e+000	1.131068e+000	1.005382e+000	8.664906e-001	1.199693e+000	1.144787e+000	1.136951e+000	1.151676e+000	1.238904e+000	1.225651e+000	1.340868e+000	1.337270e+000	1.084383e+000	1.212203e+000	9.324300e-001	1.166178e+000	1.151249e+000	6.633693e-001	9.002582e-001	1.121106e+000	1.064855e+000	6.384555e-001	1.143273e+000	1.333966e+000	8.681567e-001	6.652852e-001	1.034517e+000	6.747567e-001	1.056447e+000	1.070961e+000	9.204587e-001	1.074674e+000	1.065477e+000	1.038613e+000	1.026850e+000	1.035270e+000	1.051759e+000	1.105791e+000	8.777099e-001	9.495667e-001	9.592058e-001	1.158603e+000	8.776634e-001	8.825884e-001	8.874607e-001	1.054243e+000	8.573316e-001	8.630281e-001	8.400100e-001	9.812099e-001	1.056680e+000	1.046848e+000	8.736084e-001	8.939738e-001	9.039225e-001	9.128596e-001	1.069182e+000	1.088075e+000	9.347171e-001	9.413483e-001	8.876774e-001	8.823197e-001	9.072952e-001	9.102567e-001	9.626506e-001	9.464535e-001	1.152657e+000	8.424280e-001	8.463618e-001	8.635412e-001	8.607474e-001	8.522633e-001	8.494782e-001	8.404677e-001	8.393238e-001	8.468499e-001	1.331262e+000	1.260615e+000	8.465782e-001	1.129316e+000	6.482178e-001	6.526561e-001	6.548776e-001	6.569922e-001	1.137796e+000	1.141828e+000	1.067144e+000	6.592073e-001	6.613065e-001	6.670731e-001	1.045484e+000	1.121098e+000	7.804875e-001	7.997488e-001	6.762256e-001	6.754136e-001	6.932512e-001	7.028913e-001	7.088848e-001	9.724084e-001	8.315271e-001	6.241047e-001	9.749689e-001	9.658445e-001	1.024322e+000	9.710979e-001	9.671039e-001	9.677233e-001	9.705750e-001	9.903341e-001	9.964593e-001	5.974986e-001	6.138865e-001	6.280483e-001	6.305229e-001	6.435029e-001	6.459095e-001	6.330217e-001	6.357096e-001	6.800460e-001	6.820596e-001	6.843825e-001	6.870330e-001	1.018880e+000	8.746576e-001	9.061487e-001	9.952928e-001	1.008656e+000	8.920570e-001	8.962823e-001	1.196900e+000	9.406729e-001	7.363552e-001	7.491473e-001	6.733686e-001	6.740965e-001	6.686417e-001	6.700586e-001	1.106120e+000	1.087792e+000	9.150741e-001	9.170610e-001	1.002479e+000	1.291634e+000	8.443980e-001	1.315460e+000	8.594432e-001	8.473793e-001	9.813094e-001	9.016796e-001	1.064635e+000	1.127583e+000	1.127423e+000	1.131111e+000	1.187445e+000	1.129963e+000	1.153546e+000	1.166477e+000	1.157079e+000	1.192611e+000	1.090440e+000	1.314621e+000	9.116694e-001	1.059581e+000	1.133733e+000	6.472926e-001	1.175796e+000	1.215665e+000	9.335221e-001	1.273840e+000	9.382968e-001	1.120076e+000	1.056161e+000	1.183708e+000	8.452744e-001	1.048067e+000	9.297273e-001	1.142606e+000	1.151683e+000	1.130788e+000	6.543405e-001	1.118438e+000	6.309311e-001	1.133637e+000	6.567127e-001	6.810365e-001	6.768320e-001	7.029120e-001	7.997806e-001	1.161647e+000	1.293446e+000	1.255530e+000	1.029235e+000	1.290364e+000	1.055829e+000	9.209352e-001	1.332990e+000	8.766312e-001	8.794271e-001	1.062654e+000	1.107797e+000	9.737551e-001	9.783120e-001	6.266372e-001	1.128729e+000	1.126363e+000	1.008099e+000	9.953285e-001	6.779967e-001	6.799744e-001	6.849800e-001	7.404190e-001	9.241935e-001	9.267289e-001	8.634517e-001	1.068194e+000	7.076923e-001	1.132586e+000	1.138747e+000	1.147917e+000	1.224681e+000	1.245968e+000	1.325279e+000	1.036740e+000	1.187677e+000	1.179675e+000	1.068261e+000	1.123697e+000	6.449224e-001	8.749260e-001	6.690051e-001	1.027783e+000	1.038493e+000	1.062427e+000	1.066647e+000	9.440392e-001	9.316814e-001	1.068423e+000	1.067778e+000	1.045692e+000	1.047955e+000	1.111797e+000	9.605703e-001	9.705480e-001	1.149693e+000	8.841016e-001	8.889124e-001	8.651001e-001	8.702481e-001	1.013634e+000	1.053553e+000	1.048209e+000	8.856346e-001	8.809168e-001	9.053756e-001	9.088357e-001	1.082991e+000	1.097893e+000	9.443689e-001	9.519472e-001	9.036831e-001	8.966558e-001	8.907093e-001	9.119886e-001	9.148437e-001	9.932275e-001	9.747710e-001	9.583272e-001	8.467785e-001	8.497601e-001	8.541069e-001	8.730767e-001	8.698012e-001	8.666316e-001	8.603766e-001	8.573684e-001	8.458550e-001	8.450327e-001	8.545299e-001	8.669497e-001	6.587134e-001	6.608642e-001	1.132962e+000	6.628849e-001	6.649791e-001	6.669743e-001	6.709239e-001	1.059128e+000	8.198043e-001	8.422672e-001	6.821542e-001	6.835337e-001	7.139747e-001	7.220622e-001	7.307743e-001	7.328344e-001	1.041041e+000	1.023564e+000	9.857762e-001	9.792774e-001	9.755797e-001	9.736826e-001	9.754732e-001	9.775635e-001	9.824843e-001	9.964493e-001	9.655064e-001	6.159897e-001	6.041511e-001	6.179489e-001	6.343487e-001	6.496136e-001	6.521883e-001	6.371043e-001	6.396794e-001	6.420921e-001	6.867452e-001	6.887742e-001	6.915546e-001	6.948535e-001	6.987884e-001	8.940718e-001	9.243435e-001	9.927710e-001	1.004663e+000	1.016355e+000	8.934798e-001	8.977045e-001	9.574496e-001	9.922410e-001	7.522293e-001	7.662457e-001	7.820477e-001	6.790294e-001	6.727472e-001	6.742734e-001	6.755909e-001	1.107334e+000	1.093291e+000	1.076955e+000	9.173875e-001	9.197159e-001	9.219340e-001	8.518457e-001	8.494498e-001	1.295852e+000	9.218719e-001	1.134366e+000	1.126046e+000	9.068585e-001	1.296128e+000	1.163387e+000	1.060163e+000	1.057097e+000	1.044802e+000	1.127524e+000	6.637256e-001	1.274356e+000	1.072324e+000	1.204052e+000	1.120496e+000	1.130307e+000	1.237594e+000	6.380629e-001	1.209778e+000	1.169209e+000	1.190823e+000	9.910954e-001	8.844046e-001	1.094570e+000	8.680924e-001	9.316293e-001	8.820165e-001	8.536732e-001	1.125760e+000	6.544278e-001	1.114471e+000	1.106168e+000	9.861240e-001	7.203429e-001	6.894008e-001	1.125310e+000	8.392999e-001	1.048872e+000	1.144811e+000	1.126144e+000	1.148749e+000	1.080445e+000	1.120648e+000	9.368804e-001	1.230945e+000	9.424941e-001	9.470920e-001	1.148558e+000	1.133896e+000	1.176690e+000	9.800049e-001	6.607434e-001	6.848313e-001	1.269394e+000	1.107428e+000	6.301504e-001	1.012119e+000	6.835673e-001	6.863339e-001	6.876550e-001	9.299524e-001	9.340227e-001	1.126337e+000	1.142114e+000	1.176969e+000	1.255721e+000	1.307940e+000	1.068872e+000	1.069337e+000	1.115474e+000	6.517763e-001	1.032443e+000	1.041248e+000	1.055177e+000	1.059569e+000	9.551604e-001	9.426390e-001	1.062342e+000	1.063252e+000	1.062415e+000	1.055030e+000	1.060507e+000	9.707586e-001	9.812485e-001	1.141708e+000	8.863990e-001	8.910570e-001	8.730842e-001	8.777102e-001	1.054325e+000	1.053206e+000	8.942084e-001	8.885717e-001	9.109589e-001	1.092442e+000	1.104414e+000	9.547561e-001	9.633956e-001	9.133216e-001	9.059887e-001	8.999268e-001	9.137505e-001	9.173549e-001	1.023829e+000	1.004020e+000	9.855370e-001	9.692358e-001	8.527535e-001	8.548074e-001	8.581789e-001	8.626706e-001	8.805818e-001	8.769329e-001	8.732682e-001	8.698465e-001	8.665301e-001	8.520542e-001	8.524046e-001	8.634600e-001	6.656083e-001	1.125982e+000	1.124186e+000	6.677656e-001	6.696004e-001	6.716582e-001	6.735119e-001	6.755899e-001	8.621298e-001	8.870602e-001	6.910083e-001	6.931305e-001	7.271969e-001	7.359339e-001	7.464501e-001	7.577180e-001	1.054125e+000	1.039184e+000	1.024801e+000	1.001209e+000	9.931265e-001	9.870168e-001	9.834579e-001	9.799944e-001	9.796549e-001	9.797771e-001	9.984487e-001	9.993628e-001	8.922137e-001	6.885712e-001	6.255949e-001	6.177101e-001	6.186819e-001	6.592059e-001	6.559356e-001	6.416675e-001	6.438744e-001	6.470853e-001	6.484993e-001	6.949940e-001	6.975100e-001	6.999896e-001	7.038054e-001	7.081181e-001	7.138014e-001	9.129667e-001	9.408801e-001	1.001820e+000	1.013066e+000	1.022932e+000	8.956798e-001	8.990051e-001	9.035543e-001	9.720568e-001	1.004553e+000	1.037415e+000	7.698169e-001	7.841066e-001	8.010058e-001	8.193193e-001	6.774212e-001	6.793085e-001	6.807966e-001	6.820804e-001	1.069065e+000	1.095463e+000	1.083154e+000	9.195763e-001	9.228112e-001	9.246664e-001	9.279754e-001	8.605088e-001	8.578634e-001	8.555095e-001	1.145211e+000	1.131547e+000	1.079656e+000	1.164666e+000	1.170075e+000	9.535914e-001	9.322534e-001	1.193907e+000	1.121660e+000	1.239102e+000	1.073586e+000	8.931463e-001	7.426570e-001	1.107171e+000	1.196678e+000	1.272073e+000	1.314963e+000	1.315186e+000	1.306715e+000	1.256531e+000	1.144033e+000	6.912631e-001	1.089199e+000	1.126542e+000	1.057834e+000	9.942277e-001	8.766349e-001	1.126798e+000	1.063919e+000	1.096160e+000	6.625126e-001	6.669262e-001	6.400172e-001	1.014786e+000	6.711351e-001	9.106662e-001	6.885934e-001	1.124725e+000	9.423157e-001	1.156395e+000	1.122388e+000	1.311077e+000	1.185493e+000	1.176640e+000	1.058436e+000	1.052541e+000	1.275064e+000	1.075792e+000	1.217170e+000	1.110573e+000	1.221701e+000	1.168343e+000	1.177614e+000	1.120998e+000	8.587426e-001	8.608219e-001	1.123281e+000	6.587359e-001	1.104349e+000	1.118037e+000	9.433315e-001	1.248719e+000	6.920953e-001	6.950613e-001	6.959699e-001	9.355754e-001	1.137530e+000	1.167714e+000	1.287400e+000	1.097702e+000	1.036250e+000	1.043004e+000	1.048441e+000	1.054046e+000	9.534603e-001	9.665702e-001	1.056794e+000	1.059435e+000	1.059371e+000	1.059540e+000	1.064443e+000	1.071145e+000	9.771589e-001	1.134019e+000	8.885227e-001	8.934271e-001	8.801326e-001	8.850273e-001	1.058047e+000	1.060036e+000	9.024401e-001	8.958006e-001	1.099179e+000	1.108948e+000	9.656346e-001	9.230257e-001	9.144097e-001	9.102281e-001	9.177359e-001	1.032803e+000	1.013713e+000	9.957995e-001	9.807791e-001	8.598936e-001	8.599322e-001	8.632951e-001	8.658302e-001	8.712360e-001	8.875622e-001	8.847662e-001	8.794315e-001	8.770040e-001	8.723400e-001	1.120479e+000	1.118536e+000	1.115344e+000	6.723617e-001	6.751388e-001	6.762337e-001	6.788881e-001	6.799232e-001	8.817329e-001	9.062798e-001	6.994499e-001	7.005819e-001	7.487133e-001	7.627285e-001	7.760828e-001	1.051086e+000	1.038123e+000	1.026651e+000	1.014829e+000	1.006541e+000	9.977736e-001	9.931106e-001	9.868791e-001	9.821507e-001	9.862996e-001	8.882772e-001	6.471741e-001	6.252522e-001	6.494943e-001	6.551523e-001	7.046699e-001	7.059613e-001	7.110471e-001	7.129663e-001	7.201246e-001	7.259801e-001	7.338027e-001	9.316020e-001	9.571981e-001	1.010011e+000	1.019430e+000	1.027422e+000	8.983292e-001	9.034054e-001	9.850833e-001	1.015635e+000	1.045304e+000	7.894884e-001	8.039607e-001	8.208253e-001	8.407979e-001	8.607732e-001	6.825702e-001	6.836436e-001	6.862102e-001	6.878310e-001	1.087072e+000	1.074927e+000	9.238688e-001	9.295017e-001	8.702985e-001	8.661464e-001	8.646671e-001	8.613334e-001	1.169127e+000	1.149872e+000	1.183960e+000	1.283950e+000	1.184057e+000	1.095308e+000	1.121262e+000	1.230131e+000	1.106860e+000	1.146739e+000	1.112088e+000	1.268745e+000	1.077637e+000	1.162870e+000	6.954919e-001	1.165264e+000	1.132785e+000	1.206752e+000	1.141283e+000	1.087093e+000	9.112187e-001	1.119634e+000	8.666447e-001	1.060647e+000	1.058926e+000	9.310849e-001	9.423215e-001	8.979970e-001	1.239209e+000	8.855516e-001	9.652910e-001	9.537744e-001	7.722691e-001	1.116084e+000	1.063237e+000	1.251463e+000	1.105879e+000	1.079428e+000	1.159969e+000	1.117796e+000	1.312527e+000	1.255269e+000	1.120062e+000	9.652866e-001	6.755531e-001	6.788243e-001	1.123362e+000	1.170957e+000	1.133323e+000	1.292201e+000	1.179646e+000	1.059017e+000	1.223067e+000	1.204192e+000	6.663735e-001	1.098650e+000	1.102290e+000	1.094762e+000	6.711101e-001	6.999111e-001	7.050627e-001	9.540919e-001	1.159009e+000	1.184080e+000	1.120666e+000	1.040953e+000	1.050099e+000	9.771385e-001	1.056086e+000	1.057984e+000	1.072618e+000	1.127505e+000	8.931281e-001	1.063271e+000	1.067146e+000	9.072901e-001	1.103712e+000	9.768369e-001	9.898345e-001	9.287515e-001	9.187014e-001	9.181619e-001	1.040655e+000	1.021497e+000	1.004308e+000	9.934557e-001	8.673165e-001	8.720477e-001	8.794252e-001	8.890042e-001	8.811031e-001	1.113919e+000	1.110996e+000	6.825003e-001	6.860314e-001	9.236493e-001	7.111712e-001	7.942707e-001	9.834458e-001	1.042116e+000	1.021367e+000	1.005134e+000	9.961902e-001	9.882087e-001	1.003073e+000	9.934108e-001	7.891925e-001	6.416903e-001	6.317514e-001	6.504821e-001	6.579010e-001	6.633392e-001	7.187277e-001	7.283831e-001	7.400881e-001	7.454135e-001	7.583379e-001	9.490293e-001	9.729377e-001	1.005147e+000	1.019505e+000	1.031385e+000	9.002482e-001	9.054274e-001	9.973012e-001	1.024649e+000	1.052182e+000	1.078624e+000	8.104336e-001	8.250828e-001	8.413879e-001	8.610276e-001	8.841910e-001	8.992441e-001	6.894349e-001	6.930836e-001	1.089033e+000	1.079351e+000	9.249246e-001	9.373594e-001	9.447639e-001	8.744718e-001	8.694005e-001	1.125826e+000	1.169602e+000	1.165213e+000	1.137760e+000	1.021639e+000	1.119763e+000	1.163312e+000	1.141821e+000	1.192140e+000	1.137574e+000	1.152938e+000	1.133513e+000	1.151083e+000	1.232038e+000	1.250301e+000	1.107337e+000	9.763525e-001	7.012861e-001	1.130354e+000	1.055673e+000	1.099302e+000	9.295093e-001	1.128453e+000	1.174627e+000	8.883237e-001	1.064704e+000	9.388439e-001	9.187997e-001	1.092472e+000	1.099625e+000	1.080936e+000	1.065032e+000	1.160204e+000	1.115035e+000	1.117070e+000	1.099671e+000	7.118441e-001	6.711024e-001	9.548642e-001	9.863505e-001	1.146873e+000	1.151294e+000	1.294213e+000	1.085517e+000	1.103627e+000	1.179231e+000	1.107021e+000	1.213224e+000	1.155950e+000	9.125817e-001	1.236980e+000	9.776263e-001	9.633715e-001	1.112995e+000	1.264580e+000	1.079129e+000	1.114269e+000	9.652213e-001	1.272168e+000	1.179202e+000	1.001718e+000	1.223074e+000	1.208344e+000	6.