# vtk DataFile Version 3.0
vtk output
ASCII
DATASET UNSTRUCTURED_GRID
POINTS 5233 float
9.997500e-001	-3.633535e-005	0.0	9.990000e-001	-1.456570e-004	0.0	9.977600e-001	-3.295305e-004	0.0	9.960200e-001	-6.008318e-004	0.0	9.937800e-001	-9.863863e-004	0.0	9.910500e-001	-1.530252e-003	0.0	9.878400e-001	-2.289939e-003	0.0	9.841300e-001	-3.329026e-003	0.0	9.799500e-001	-4.671362e-003	0.0	9.752800e-001	-6.304452e-003	0.0	9.701500e-001	-8.137960e-003	0.0	9.645400e-001	-1.005055e-002	0.0	9.584700e-001	-1.189190e-002	0.0	9.519400e-001	-1.354380e-002	0.0	9.449600e-001	-1.493931e-002	0.0	9.375400e-001	-1.607251e-002	0.0	9.296900e-001	-1.698333e-002	0.0	9.214000e-001	-1.773388e-002	0.0	9.127000e-001	-1.838058e-002	0.0	9.035800e-001	-1.896933e-002	0.0	8.940600e-001	-1.952818e-002	0.0	8.841500e-001	-2.007530e-002	0.0	8.738500e-001	-2.062533e-002	0.0	8.631800e-001	-2.119251e-002	0.0	8.521600e-001	-2.179338e-002	0.0	8.407700e-001	-2.244817e-002	0.0	8.290500e-001	-2.317306e-002	0.0	8.170100e-001	-2.398290e-002	0.0	8.046400e-001	-2.488960e-002	0.0	7.919700e-001	-2.589713e-002	0.0	7.790100e-001	-2.700578e-002	0.0	7.657800e-001	-2.821054e-002	0.0	7.522800e-001	-2.950469e-002	0.0	7.385200e-001	-3.087817e-002	0.0	7.245300e-001	-3.231705e-002	0.0	7.103200e-001	-3.380831e-002	0.0	6.958900e-001	-3.533952e-002	0.0	6.812700e-001	-3.689502e-002	0.0	6.664700e-001	-3.846152e-002	0.0	6.515000e-001	-4.002621e-002	0.0	6.363800e-001	-4.157600e-002	0.0	6.211300e-001	-4.309870e-002	0.0	6.057600e-001	-4.458415e-002	0.0	5.902800e-001	-4.602321e-002	0.0	5.747100e-001	-4.740692e-002	0.0	5.590600e-001	-4.872833e-002	0.0	5.433600e-001	-4.997996e-002	0.0	5.276100e-001	-5.115786e-002	0.0	5.118400e-001	-5.225672e-002	0.0	4.960500e-001	-5.327431e-002	0.0	4.802700e-001	-5.420715e-002	0.0	4.645100e-001	-5.505382e-002	0.0	4.487800e-001	-5.581330e-002	0.0	4.331100e-001	-5.648414e-002	0.0	4.175000e-001	-5.706654e-002	0.0	4.019700e-001	-5.756003e-002	0.0	3.865400e-001	-5.796433e-002	0.0	3.712300e-001	-5.827930e-002	0.0	3.560400e-001	-5.850510e-002	0.0	3.409900e-001	-5.864132e-002	0.0	3.261100e-001	-5.868753e-002	0.0	3.114000e-001	-5.864333e-002	0.0	2.968700e-001	-5.850796e-002	0.0	2.825500e-001	-5.828082e-002	0.0	2.684500e-001	-5.796115e-002	0.0	2.545700e-001	-5.754777e-002	0.0	2.409400e-001	-5.704039e-002	0.0	2.275700e-001	-5.643842e-002	0.0	2.144700e-001	-5.574141e-002	0.0	2.016600e-001	-5.494983e-002	0.0	1.891400e-001	-5.406328e-002	0.0	1.769300e-001	-5.308307e-002	0.0	1.650400e-001	-5.201040e-002	0.0	1.534900e-001	-5.084798e-002	0.0	1.422900e-001	-4.959830e-002	0.0	1.314400e-001	-4.826310e-002	0.0	1.209500e-001	-4.684554e-002	0.0	1.108500e-001	-4.535232e-002	0.0	1.011300e-001	-4.378490e-002	0.0	9.181000e-002	-4.214945e-002	0.0	8.290000e-002	-4.045103e-002	0.0	7.440000e-002	-3.869271e-002	0.0	6.633000e-002	-3.688162e-002	0.0	5.869000e-002	-3.502052e-002	0.0	5.149000e-002	-3.311395e-002	0.0	4.474000e-002	-3.116618e-002	0.0	3.844000e-002	-2.917787e-002	0.0	3.260000e-002	-2.715166e-002	0.0	2.723000e-002	-2.508969e-002	0.0	2.232000e-002	-2.298472e-002	0.0	1.790000e-002	-2.084539e-002	0.0	1.395000e-002	-1.865609e-002	0.0	1.049000e-002	-1.641943e-002	0.0	7.520000e-003	-1.412686e-002	0.0	5.040000e-003	-1.176728e-002	0.0	3.050000e-003	-9.326089e-003	0.0	1.560000e-003	-6.802458e-003	0.0	5.600000e-004	-4.159983e-003	0.0	6.000000e-005	-1.387985e-003	0.0	0.000000e+000	0.000000e+000	0.0	6.000000e-005	1.492427e-003	0.0	5.600000e-004	4.717546e-003	0.0	1.560000e-003	7.983408e-003	0.0	3.050000e-003	1.122478e-002	0.0	5.040000e-003	1.444020e-002	0.0	7.520000e-003	1.759636e-002	0.0	1.049000e-002	2.068665e-002	0.0	1.395000e-002	2.370655e-002	0.0	1.790000e-002	2.665340e-002	0.0	2.232000e-002	2.951391e-002	0.0	2.723000e-002	3.230283e-002	0.0	3.260000e-002	3.500560e-002	0.0	3.844000e-002	3.763114e-002	0.0	4.474000e-002	4.017792e-002	0.0	5.149000e-002	4.264529e-002	0.0	5.869000e-002	4.503613e-002	0.0	6.633000e-002	4.734938e-002	0.0	7.440000e-002	4.958395e-002	0.0	8.290000e-002	5.174100e-002	0.0	9.181000e-002	5.381606e-002	0.0	1.011300e-001	5.580915e-002	0.0	1.108500e-001	5.771726e-002	0.0	1.209500e-001	5.953524e-002	0.0	1.314400e-001	6.126281e-002	0.0	1.422900e-001	6.289242e-002	0.0	1.534900e-001	6.441986e-002	0.0	1.650400e-001	6.584177e-002	0.0	1.769300e-001	6.715303e-002	0.0	1.891400e-001	6.834750e-002	0.0	2.016600e-001	6.942027e-002	0.0	2.144700e-001	7.036586e-002	0.0	2.275700e-001	7.118059e-002	0.0	2.409400e-001	7.185972e-002	0.0	2.545700e-001	7.239976e-002	0.0	2.684500e-001	7.279781e-002	0.0	2.825500e-001	7.305138e-002	0.0	2.968700e-001	7.315976e-002	0.0	3.114000e-001	7.312282e-002	0.0	3.261100e-001	7.294186e-002	0.0	3.409900e-001	7.261955e-002	0.0	3.560400e-001	7.215945e-002	0.0	3.712300e-001	7.156740e-002	0.0	3.865400e-001	7.085070e-002	0.0	4.019700e-001	7.001716e-002	0.0	4.175000e-001	6.907687e-002	0.0	4.331100e-001	6.804147e-002	0.0	4.487800e-001	6.692388e-002	0.0	4.645100e-001	6.573661e-002	0.0	4.802700e-001	6.449515e-002	0.0	4.960500e-001	6.321403e-002	0.0	5.118400e-001	6.190786e-002	0.0	5.276100e-001	6.059269e-002	0.0	5.433600e-001	5.928139e-002	0.0	5.590600e-001	5.798819e-002	0.0	5.747100e-001	5.672324e-002	0.0	5.902800e-001	5.549703e-002	0.0	6.057600e-001	5.431588e-002	0.0	6.211300e-001	5.318390e-002	0.0	6.363800e-001	5.210117e-002	0.0	6.515000e-001	5.106421e-002	0.0	6.664700e-001	5.006650e-002	0.0	6.812700e-001	4.909767e-002	0.0	6.958900e-001	4.814301e-002	0.0	7.103200e-001	4.718441e-002	0.0	7.245300e-001	4.620216e-002	0.0	7.385200e-001	4.517229e-002	0.0	7.522800e-001	4.407006e-002	0.0	7.657800e-001	4.287228e-002	0.0	7.790100e-001	4.155567e-002	0.0	7.919700e-001	4.009879e-002	0.0	8.046400e-001	3.848719e-002	0.0	8.170100e-001	3.671239e-002	0.0	8.290500e-001	3.477820e-002	0.0	8.407700e-001	3.269295e-002	0.0	8.521600e-001	3.047923e-002	0.0	8.631800e-001	2.817775e-002	0.0	8.738500e-001	2.582729e-002	0.0	8.841500e-001	2.348185e-002	0.0	8.940600e-001	2.119809e-002	0.0	9.035800e-001	1.902400e-002	0.0	9.127000e-001	1.699881e-002	0.0	9.214000e-001	1.514634e-002	0.0	9.296900e-001	1.346276e-002	0.0	9.375400e-001	1.193210e-002	0.0	9.449600e-001	1.051652e-002	0.0	9.519400e-001	9.179803e-003	0.0	9.584700e-001	7.896174e-003	0.0	9.645400e-001	6.659730e-003	0.0	9.701500e-001	5.483810e-003	0.0	9.752800e-001	4.399796e-003	0.0	9.799500e-001	3.432040e-003	0.0	9.841300e-001	2.605198e-003	0.0	9.878400e-001	1.918275e-003	0.0	9.910500e-001	1.365969e-003	0.0	9.937800e-001	9.267514e-004	0.0	9.960200e-001	5.842902e-004	0.0	9.977600e-001	3.264626e-004	0.0	9.990000e-001	1.453770e-004	0.0	9.997500e-001	3.633092e-005	0.0	1.000000e+000	0.000000e+000	0.0	1.984229e+001	2.506660e+000	0.0	1.937166e+001	4.973800e+000	0.0	1.859553e+001	7.362490e+000	0.0	1.752613e+001	9.635070e+000	0.0	1.618034e+001	1.175571e+001	0.0	1.457937e+001	1.369094e+001	0.0	1.274848e+001	1.541027e+001	0.0	1.071654e+001	1.688656e+001	0.0	8.515590e+000	1.809654e+001	0.0	6.180340e+000	1.902113e+001	0.0	3.747630e+000	1.964575e+001	0.0	1.255810e+000	1.996053e+001	0.0	-1.255810e+000	1.996053e+001	0.0	-3.747630e+000	1.964574e+001	0.0	-6.180340e+000	1.902113e+001	0.0	-8.515590e+000	1.809654e+001	0.0	-1.071654e+001	1.688656e+001	0.0	-1.274848e+001	1.541026e+001	0.0	-1.457937e+001	1.369094e+001	0.0	-1.618034e+001	1.175570e+001	0.0	-1.752613e+001	9.635070e+000	0.0	-1.859553e+001	7.362490e+000	0.0	-1.937166e+001	4.973800e+000	0.0	-1.984229e+001	2.506660e+000	0.0	-2.000000e+001	0.000000e+000	0.0	-1.984229e+001	-2.506670e+000	0.0	-1.937166e+001	-4.973800e+000	0.0	-1.859553e+001	-7.362490e+000	0.0	-1.752613e+001	-9.635080e+000	0.0	-1.618034e+001	-1.175571e+001	0.0	-1.457937e+001	-1.369094e+001	0.0	-1.274848e+001	-1.541027e+001	0.0	-1.071653e+001	-1.688656e+001	0.0	-8.515580e+000	-1.809654e+001	0.0	-6.180340e+000	-1.902113e+001	0.0	-3.747620e+000	-1.964575e+001	0.0	-1.255810e+000	-1.996053e+001	0.0	1.255810e+000	-1.996053e+001	0.0	3.747630e+000	-1.964574e+001	0.0	6.180340e+000	-1.902113e+001	0.0	8.515590e+000	-1.809654e+001	0.0	1.071654e+001	-1.688656e+001	0.0	1.274848e+001	-1.541026e+001	0.0	1.457937e+001	-1.369094e+001	0.0	1.618034e+001	-1.175570e+001	0.0	1.752614e+001	-9.635070e+000	0.0	1.859553e+001	-7.362490e+000	0.0	1.937166e+001	-4.973790e+000	0.0	1.984229e+001	-2.506660e+000	0.0	2.000000e+001	0.000000e+000	0.0	6.086087e-002	-4.307356e-002	0.0	6.602390e-001	-5.302480e-002	0.0	4.260428e-001	8.286532e-002	0.0	6.898640e-001	6.208125e-002	0.0	3.792358e-001	-7.210388e-002	0.0	9.994589e-001	-7.561077e-004	0.0	9.985333e-001	-1.373433e-003	0.0	7.735322e-001	-4.005179e-002	0.0	6.898353e-001	-4.964621e-002	0.0	-1.686919e-003	7.310926e-003	0.0	7.465820e-001	-4.306524e-002	0.0	5.836623e-001	7.062163e-002	0.0	9.927929e-001	-3.885740e-003	0.0	9.899257e-001	-4.997795e-003	0.0	5.991960e-001	6.933371e-002	0.0	7.186542e-001	-4.628967e-002	0.0	-1.680061e-003	9.202158e-004	0.0	9.865824e-001	-6.329546e-003	0.0	9.827672e-001	-7.893691e-003	0.0	-1.512586e-003	-6.356343e-003	0.0	6.451877e-001	-5.469130e-002	0.0	8.240959e-001	-3.491701e-002	0.0	7.993941e-001	-3.733805e-002	0.0	3.487973e-001	8.608027e-002	0.0	8.475125e-001	-3.276532e-002	0.0	2.472517e-001	8.452634e-002	0.0	8.695847e-001	-3.077308e-002	0.0	9.554395e-003	2.525930e-002	0.0	8.902061e-001	-2.881669e-002	0.0	7.712499e-002	-4.746416e-002	0.0	9.092971e-001	-2.676486e-002	0.0	-2.054420e-003	-3.135711e-003	0.0	9.424989e-001	-2.159476e-002	0.0	9.267631e-001	-2.444353e-002	0.0	1.803591e-002	-2.608304e-002	0.0	4.258808e-001	-7.100542e-002	0.0	8.587256e-001	-3.175462e-002	0.0	9.564184e-001	-1.800184e-002	0.0	9.784691e-001	-9.711522e-003	0.0	9.684255e-001	-1.381851e-002	0.0	1.583011e-001	-6.202602e-002	0.0	8.999506e-001	-2.781215e-002	0.0	7.601887e-001	-4.152594e-002	0.0	9.971069e-001	-2.148422e-003	0.0	5.992015e-001	-5.945753e-002	0.0	4.415916e-001	-7.043333e-002	0.0	5.365015e-001	-6.491570e-002	0.0	4.731787e-001	-6.898591e-002	0.0	5.048526e-001	-6.714183e-002	0.0	4.890042e-001	-6.811217e-002	0.0	1.250072e-001	-5.719963e-002	0.0	2.796166e-002	-3.119168e-002	0.0	3.946907e-001	-7.184193e-002	0.0	4.634695e-002	-3.847
[...]
POINT_DATA 5233

SCALARS Density float 1
LOOKUP_TABLE default
1.216207e+000	1.199650e+000	1.193037e+000	1.189987e+000	1.188297e+000	1.185544e+000	1.178411e+000	1.164483e+000	1.141458e+000	1.108259e+000	1.065731e+000	1.015248e+000	9.601230e-001	9.155721e-001	8.956173e-001	8.983356e-001	9.138967e-001	9.333731e-001	9.514696e-001	9.663030e-001	9.782556e-001	9.882436e-001	9.969379e-001	1.004553e+000	1.011082e+000	1.016313e+000	1.020094e+000	1.022295e+000	1.022936e+000	1.022090e+000	1.019877e+000	1.016456e+000	1.011980e+000	1.006607e+000	1.000514e+000	9.938001e-001	9.866236e-001	9.790394e-001	9.711834e-001	9.631176e-001	9.549678e-001	9.467799e-001	9.386293e-001	9.305481e-001	9.225400e-001	9.146935e-001	9.071365e-001	8.999985e-001	8.932873e-001	8.867293e-001	8.801229e-001	8.736653e-001	8.677454e-001	8.626944e-001	8.584673e-001	8.544769e-001	8.499291e-001	8.441689e-001	8.369697e-001	8.292184e-001	8.223560e-001	8.174357e-001	8.148379e-001	8.142609e-001	8.152212e-001	8.172825e-001	8.202000e-001	8.237975e-001	8.279567e-001	8.325498e-001	8.375457e-001	8.430167e-001	8.491063e-001	8.558487e-001	8.631606e-001	8.708750e-001	8.789632e-001	8.874859e-001	8.964118e-001	9.056882e-001	9.153334e-001	9.253070e-001	9.356417e-001	9.463481e-001	9.575049e-001	9.692779e-001	9.818230e-001	9.954377e-001	1.010580e+000	1.027740e+000	1.047847e+000	1.072079e+000	1.101616e+000	1.138042e+000	1.181876e+000	1.231175e+000	1.280129e+000	1.329576e+000	1.349449e+000	1.350214e+000	1.352737e+000	1.336623e+000	1.294815e+000	1.248798e+000	1.195904e+000	1.142949e+000	1.092625e+000	1.046646e+000	1.005660e+000	9.699772e-001	9.392165e-001	9.126358e-001	8.897305e-001	8.698254e-001	8.524198e-001	8.371072e-001	8.233570e-001	8.107360e-001	7.990694e-001	7.881964e-001	7.780484e-001	7.684535e-001	7.590704e-001	7.495509e-001	7.398649e-001	7.303034e-001	7.211646e-001	7.122561e-001	7.032318e-001	6.938878e-001	6.844562e-001	6.751786e-001	6.662338e-001	6.575755e-001	6.491858e-001	6.409827e-001	6.329454e-001	6.251377e-001	6.175110e-001	6.101771e-001	6.032374e-001	5.969795e-001	5.916030e-001	5.870382e-001	5.830606e-001	5.796447e-001	5.768461e-001	5.749115e-001	5.738888e-001	5.740381e-001	5.752803e-001	5.775748e-001	5.807889e-001	5.848273e-001	5.896098e-001	5.949073e-001	6.004788e-001	6.058383e-001	6.110993e-001	6.162272e-001	6.225646e-001	6.237351e-001	6.186958e-001	6.204363e-001	7.161792e-001	9.103888e-001	9.821103e-001	9.680316e-001	9.507097e-001	9.466811e-001	9.471719e-001	9.496382e-001	9.558925e-001	9.663683e-001	9.799667e-001	9.955592e-001	1.011954e+000	1.028097e+000	1.042985e+000	1.055890e+000	1.066204e+000	1.073713e+000	1.078589e+000	1.081535e+000	1.083734e+000	1.086670e+000	1.091630e+000	1.099170e+000	1.108843e+000	1.119400e+000	1.129497e+000	1.138269e+000	1.145427e+000	1.151401e+000	1.156793e+000	1.163021e+000	1.170587e+000	1.181311e+000	1.193438e+000	1.189378e+000	9.983036e-001	9.995057e-001	9.996383e-001	9.994431e-001	9.993125e-001	9.991480e-001	9.989544e-001	9.987158e-001	9.984586e-001	9.982897e-001	9.982116e-001	9.983353e-001	9.986062e-001	9.990941e-001	9.994970e-001	9.998227e-001	1.000008e+000	1.000126e+000	1.000202e+000	1.000239e+000	1.000262e+000	1.000272e+000	1.000282e+000	1.000294e+000	1.000303e+000	1.000319e+000	1.000345e+000	1.000378e+000	1.000424e+000	1.000494e+000	1.000573e+000	1.000703e+000	1.000831e+000	1.001049e+000	1.001255e+000	1.001514e+000	1.001791e+000	1.001908e+000	1.001946e+000	1.001800e+000	1.001632e+000	1.001387e+000	1.001159e+000	1.000936e+000	1.000738e+000	1.000499e+000	1.000304e+000	1.000331e+000	9.991590e-001	9.975372e-001	9.532715e-001	9.680747e-001	5.862044e-001	6.212826e-001	8.516825e-001	1.199225e+000	1.193028e+000	1.015744e+000	9.829045e-001	1.317669e+000	1.007607e+000	5.887905e-001	1.177710e+000	1.171056e+000	5.939964e-001	9.963395e-001	1.348422e+000	1.160315e+000	1.143644e+000	1.313275e+000	9.603732e-001	1.018584e+000	1.019707e+000	6.149325e-001	1.011992e+000	6.720483e-001	1.000519e+000	1.102811e+000	9.849002e-001	9.311708e-001	9.637246e-001	1.340348e+000	9.168893e-001	9.351274e-001	1.063417e+000	8.645800e-001	1.006791e+000	9.600208e-001	1.119744e+000	1.050281e+000	8.603149e-001	9.752097e-001	1.012128e+000	1.186394e+000	9.369755e-001	8.689902e-001	9.068289e-001	8.806446e-001	8.936824e-001	8.871860e-001	8.837098e-001	1.022920e+000	8.567228e-001	9.777994e-001	8.607353e-001	8.241075e-001	8.373546e-001	1.006336e+000	8.194139e-001	9.219086e-001	8.676569e-001	8.420671e-001	9.208324e-001	9.013794e-001	9.215201e-001	8.536018e-001	9.447645e-001	9.932295e-001	1.041696e+000	1.182230e+000	1.153647e+000	1.021240e+000	9.501366e-001	9.281895e-001	1.088373e+000	1.283458e+000	1.015950e+000	8.245874e-001	9.140076e-001	1.002286e+000	1.018312e+000	8.923191e-001	8.323149e-001	9.292104e-001	9.756221e-001	9.651661e-001	1.193164e+000	1.088812e+000	8.450638e-001	8.475662e-001	1.225559e+000	8.281445e-001	9.109057e-001	8.206275e-001	8.218000e-001	8.744217e-001	9.898282e-001	1.344593e+000	1.277433e+000	5.775883e-001	1.346922e+000	9.556421e-001	8.656782e-001	9.048286e-001	7.764549e-001	5.906594e-001	1.164909e+000	5.757458e-001	5.766419e-001	1.114140e+000	1.097326e+000	1.036851e+000	5.752788e-001	5.822953e-001	6.013833e-001	1.074320e+000	1.059734e+000	8.211429e-001	1.123121e+000	1.090977e+000	1.082529e+000	7.972468e-001	8.493608e-001	6.465588e-001	6.633674e-001	7.275774e-001	6.303345e-001	5.790915e-001	5.957143e-001	7.464667e-001	7.664821e-001	6.050574e-001	7.091658e-001	6.902415e-001	6.171552e-001	5.842127e-001	9.909172e-001	6.368970e-001	9.559911e-001	9.627819e-001	9.809601e-001	9.618537e-001	1.049249e+000	1.008567e+000	1.086235e+000	1.068075e+000	1.105264e+000	9.942455e-001	1.023081e+000	9.576045e-001	9.698313e-001	9.838978e-001	9.558930e-001	6.173818e-001	8.371697e-001	6.105475e-001	6.224488e-001	5.804352e-001	5.995651e-001	6.997139e-001	6.810299e-001	7.368505e-001	7.184689e-001	8.840007e-001	7.564686e-001	1.060120e+000	9.285885e-001	8.369915e-001	1.195074e+000	1.005461e+000	1.019826e+000	8.299182e-001	9.001287e-001	1.241637e+000	9.863957e-001	1.148234e+000	8.087255e-001	8.346067e-001	6.548725e-001	7.865861e-001	1.131473e+000	1.138856e+000	6.383757e-001	1.145385e+000	1.151445e+000	6.225472e-001	6.078208e-001	1.078885e+000	1.203287e+000	1.174164e+000	1.183523e+000	9.525768e-001	9.914272e-001	1.157749e+000	5.749348e-001	1.235913e+000	1.118803e+000	9.419634e-001	8.754989e-001	8.199530e-001	8.466702e-001	1.295847e+000	1.324999e+000	8.260329e-001	9.861843e-001	9.631438e-001	1.155845e+000	5.843982e-001	9.795526e-001	1.014423e+000	1.155133e+000	8.325835e-001	1.007949e+000	1.014764e+000	9.267444e-001	1.293422e+000	8.422900e-001	1.096988e+000	1.001495e+000	8.729844e-001	9.924519e-001	9.654276e-001	8.761677e-001	9.373332e-001	8.589052e-001	9.823400e-001	1.016209e+000	1.144485e+000	1.030419e+000	6.156865e-001	9.838252e-001	7.963993e-001	6.204315e-001	7.448762e-001	1.019652e+000	1.138762e+000	6.288088e-001	5.775754e-001	1.089586e+000	1.031982e+000	1.144928e+000	1.095237e+000	1.124814e+000	6.883787e-001	6.369097e-001	6.975595e-001	8.075835e-001	9.726086e-001	8.474868e-001	1.104193e+000	7.644487e-001	8.978889e-001	1.109322e+000	1.151078e+000	1.043537e+000	8.656893e-001	1.215187e+000	1.164958e+000	1.157587e+000	1.185477e+000	1.264339e+000	1.189867e+000	1.338293e+000	1.342010e+000	1.072505e+000	1.224298e+000	9.600556e-001	1.183224e+000	1.171687e+000	5.958514e-001	9.139378e-001	1.141665e+000	9.970280e-001	5.885083e-001	1.164836e+000	1.322397e+000	8.713144e-001	6.014536e-001	1.011936e+000	6.619672e-001	1.002975e+000	9.902057e-001	9.484081e-001	9.733444e-001	9.523156e-001	9.460957e-001	1.032134e+000	9.680911e-001	1.037498e+000	1.123109e+000	8.891781e-001	1.007887e+000	1.011607e+000	1.177455e+000	8.819153e-001	8.882479e-001	8.945877e-001	1.051176e+000	8.633318e-001	8.672213e-001	8.389948e-001	9.996874e-001	9.428681e-001	9.388949e-001	8.808605e-001	9.166254e-001	9.210543e-001	9.432576e-001	1.070462e+000	1.099318e+000	9.981783e-001	1.003406e+000	9.070320e-001	8.978827e-001	9.284023e-001	9.358080e-001	9.855842e-001	9.724364e-001	1.124600e+000	8.463080e-001	8.532154e-001	8.591151e-001	8.530817e-001	8.375975e-001	8.334689e-001	8.261046e-001	8.282186e-001	8.300562e-001	1.340739e+000	1.226262e+000	9.187602e-001	1.132099e+000	5.776450e-001	5.783632e-001	5.802801e-001	5.829003e-001	1.117145e+000	1.101895e+000	1.069639e+000	5.865159e-001	5.907995e-001	6.076473e-001	1.062499e+000	1.084745e+000	8.620621e-001	8.790819e-001	6.794280e-001	6.705756e-001	7.544817e-001	7.749905e-001	7.856451e-001	9.659144e-001	9.653516e-001	7.413709e-001	9.663130e-001	9.750003e-001	1.053761e+000	1.006958e+000	9.948452e-001	9.689962e-001	9.662539e-001	9.731904e-001	9.926637e-001	6.243769e-001	6.089174e-001	6.106525e-001	6.043039e-001	5.811811e-001	5.789030e-001	5.985109e-001	5.932052e-001	7.067893e-001	7.162907e-001	7.258371e-001	7.354466e-001	1.066066e+000	9.422135e-001	9.686814e-001	1.016912e+000	1.016442e+000	9.008262e-001	9.071952e-001	1.226425e+000	9.980811e-001	8.195546e-001	8.325313e-001	6.450659e-001	6.534396e-001	6.141782e-001	6.212295e-001	1.080238e+000	1.075400e+000	9.506882e-001	9.581003e-001	1.015067e+000	1.261853e+000	8.274706e-001	1.301930e+000	8.663106e-001	8.328504e-001	1.012856e+000	9.147739e-001	9.663269e-001	1.138454e+000	1.132401e+000	1.098756e+000	1.213303e+000	1.144799e+000	1.173373e+000	1.185038e+000	1.173513e+000	1.206671e+000	1.080033e+000	1.322270e+000	9.333237e-001	9.599767e-001	1.151619e+000	5.826504e-001	1.191324e+000	1.186713e+000	9.891534e-001	1.248431e+000	9.946571e-001	1.103020e+000	1.000045e+000	1.156707e+000	8.416127e-001	1.004727e+000	9.832389e-001	1.160528e+000	1.128799e+000	1.119162e+000	5.809138e-001	1.087310e+000	6.098098e-001	1.150206e+000	5.825479e-001	6.785607e-001	6.439891e-001	7.639918e-001	8.751890e-001	1.180088e+000	1.273336e+000	1.273324e+000	1.071555e+000	1.303237e+000	1.032051e+000	9.440372e-001	1.335823e+000	8.788299e-001	8.837628e-001	1.059269e+000	1.141650e+000	9.880809e-001	9.755505e-001	6.133028e-001	1.126019e+000	1.092744e+000	1.039314e+000	1.028695e+000	6.524291e-001	6.696480e-001	7.058117e-001	8.189474e-001	9.703485e-001	9.769081e-001	8.533140e-001	1.106132e+000	7.737453e-001	1.112234e+000	1.156603e+000	1.177785e+000	1.246825e+000	1.217761e+000	1.319618e+000	1.040258e+000	1.200736e+000	1.194079e+000	1.060026e+000	1.140565e+000	5.851821e-001	8.786269e-001	6.076863e-001	1.011434e+000	1.008506e+000	9.946546e-001	9.883980e-001	9.671844e-001	9.553257e-001	9.815260e-001	9.739910e-001	9.784208e-001	1.003292e+000	1.126258e+000	1.007867e+000	1.010729e+000	1.166713e+000	8.897203e-001	8.960703e-001	8.704595e-001	8.742796e-001	1.023208e+000	9.575298e-001	9.628041e-001	8.952504e-001	8.867768e-001	9.214614e-001	9.284005e-001	1.085644e+000	1.107811e+000	9.996855e-001	1.004059e+000	9.231021e-001	9.132448e-001	9.039965e-001	9.354714e-001	9.425351e-001	1.007822e+000	9.933942e-001	9.798159e-001	8.481902e-001	8.551330e-001	8.612775e-001	8.717448e-001	8.651872e-001	8.590549e-001	8.481006e-001	8.434173e-001	8.336523e-001	8.365185e-001	8.394055e-001	9.327074e-001	5.844812e-001	5.876463e-001	1.105303e+000	5.914324e-001	5.961403e-001	6.014689e-001	6.143386e-001	1.065105e+000	8.926162e-001	9.118241e-001	6.874471e-001	6.966719e-001	7.840579e-001	7.955210e-001	8.072630e-001	9.052252e-001	1.057666e+000	1.048957e+000	1.017800e+000	1.006868e+000	9.970472e-001	9.809547e-001	9.769690e-001	9.754534e-001	9.758794e-001	9.847987e-001	9.969883e-001	6.750423e-001	6.152259e-001	6.108093e-001	6.031393e-001	5.811213e-001	5.807372e-001	5.980507e-001	5.928669e-001	5.884187e-001	7.151279e-001	7.243670e-001	7.340732e-001	7.439972e-001	7.541596e-001	9.554400e-001	9.808951e-001	1.013972e+000	1.014141e+000	1.013309e+000	9.022122e-001	9.083790e-001	1.009129e+000	1.039217e+000	8.312514e-001	8.446976e-001	8.592826e-001	6.610094e-001	6.215389e-001	6.287084e-001	6.361245e-001	1.082222e+000	1.077100e+000	1.071520e+000	9.496000e-001	9.566163e-001	9.635395e-001	8.361212e-001	8.338574e-001	1.281512e+000	9.401631e-001	1.149427e+000	1.120213e+000	9.219343e-001	1.302257e+000	1.178705e+000	9.743181e-001	9.737325e-001	1.046900e+000	1.137850e+000	5.913166e-001	1.255564e+000	1.106080e+000	1.180564e+000	1.095521e+000	1.143635e+000	1.253391e+000	6.034219e-001	1.229276e+000	1.187401e+000	1.203289e+000	1.011481e+000	8.859615e-001	1.085543e+000	8.743375e-001	9.510339e-001	8.866779e-001	8.413859e-001	1.126333e+000	5.843560e-001	1.089835e+000	1.084423e+000	9.830443e-001	7.850838e-001	6.975612e-001	1.139288e+000	9.055635e-001	1.002202e+000	1.162705e+000	1.132252e+000	1.163795e+000	1.075606e+000	1.106633e+000	9.864695e-001	1.207406e+000	9.916154e-001	9.966662e-001	1.130071e+000	1.148769e+000	1.154938e+000	9.912647e-001	5.872580e-001	6.703222e-001	1.281033e+000	1.137460e+000	6.033578e-001	1.036362e+000	6.619208e-001	6.794523e-001	6.881721e-001	9.747905e-001	9.807739e-001	1.113892e+000	1.168573e+000	1.199840e+000	1.233617e+000	1.300239e+000	1.065460e+000	1.053821e+000	1.127370e+000	5.848194e-001	1.008444e+000	1.005764e+000	9.980812e-001	9.934246e-001	9.742125e-001	9.623165e-001	9.883374e-001	9.830117e-001	9.780977e-001	1.008720e+000	1.031039e+000	1.007614e+000	1.009456e+000	1.156919e+000	8.920666e-001	8.981868e-001	8.781361e-001	8.821314e-001	9.783178e-001	9.900678e-001	9.021663e-001	8.933030e-001	9.291009e-001	1.095385e+000	1.112797e+000	1.000524e+000	1.004763e+000	9.298383e-001	9.201098e-001	9.110969e-001	9.353391e-001	9.425354e-001	1.030729e+000	1.015230e+000	1.000393e+000	9.867408e-001	8.516884e-001	8.580230e-001	8.642036e-001	8.696050e-001	8.790078e-001	8.724043e-001	8.660914e-001	8.603478e-001	8.551310e-001	8.463923e-001	8.428263e-001	8.505771e-001	5.945434e-001	1.107640e+000	1.101444e+000	5.989744e-001	6.036264e-001	6.095783e-001	6.156444e-001	6.229836e-001	9.249419e-001	9.460741e-001	7.065145e-001	7.161622e-001	7.951993e-001	8.060287e-001	8.183974e-001	8.311808e-001	1.060894e+000	1.053523e+000	1.045147e+000	1.026698e+000	1.017546e+000	1.008258e+000	9.999937e-001	9.867626e-001	9.831434e-001	9.802247e-001	9.872865e-001	1.000603e+000	9.867718e-001	8.165183e-001	6.510525e-001	6.167736e-001	6.000526e-001	5.862720e-001	5.840680e-001	5.974224e-001	5.923923e-001	5.887639e-001	5.859510e-001	7.252020e-001	7.346947e-001	7.437065e-001	7.535774e-001	7.636578e-001	7.742952e-001	9.681224e-001	9.915878e-001	1.011603e+000	1.011596e+000	1.010460e+000	9.044766e-001	9.093239e-001	9.161066e-001	1.018198e+000	1.046425e+000	1.075151e+000	8.439370e-001	8.572891e-001	8.722146e-001	8.882667e-001	6.302014e-001	6.382654e-001	6.458385e-001	6.534718e-001	1.067582e+000	1.079027e+000	1.073625e+000	9.488290e-001	9.557889e-001	9.620764e-001	9.686625e-001	8.466619e-001	8.436559e-001	8.417449e-001	1.130089e+000	1.145247e+000	1.069559e+000	1.183048e+000	1.152339e+000	9.955679e-001	9.474709e-001	1.174702e+000	1.114865e+000	1.220311e+000	1.070207e+000	8.945504e-001	8.085155e-001	1.133629e+000	1.213771e+000	1.278214e+000	1.316293e+000	1.316230e+000	1.308760e+000	1.239794e+000	1.158177e+000	6.816023e-001	1.086624e+000	1.138412e+000	9.928007e-001	1.009056e+000	8.827319e-001	1.137058e+000	1.063950e+000	1.081084e+000	5.904564e-001	5.958932e-001	5.934968e-001	1.005074e+000	6.027946e-001	9.260768e-001	6.709118e-001	1.131741e+000	9.583200e-001	1.174757e+000	1.120576e+000	1.309182e+000	1.198846e+000	1.190800e+000	9.854216e-001	1.053303e+000	1.261304e+000	1.105623e+000	1.197605e+000	1.091913e+000	1.235644e+000	1.185071e+000	1.191804e+000	1.109213e+000	8.514820e-001	8.508417e-001	1.126153e+000	5.876797e-001	1.086501e+000	1.128085e+000	9.865018e-001	1.259053e+000	6.884676e-001	6.996929e-001	7.068334e-001	9.758334e-001	1.160795e+000	1.187847e+000	1.277765e+000	1.089792e+000	1.006375e+000	1.004031e+000	1.001292e+000	9.974920e-001	9.695532e-001	9.817839e-001	9.945985e-001	9.900441e-001	9.883525e-001	9.863564e-001	1.033182e+000	1.051477e+000	1.005908e+000	1.146925e+000	8.941387e-001	9.003196e-001	8.853222e-001	8.902094e-001	1.001991e+000	1.015839e+000	9.090103e-001	8.997674e-001	1.102310e+000	1.116191e+000	1.001704e+000	9.368152e-001	9.265058e-001	9.198103e-001	9.389934e-001	1.037457e+000	1.022064e+000	1.007341e+000	9.944410e-001	8.564437e-001	8.606933e-001	8.673341e-001	8.722310e-001	8.779853e-001	8.859760e-001	8.807877e-001	8.727242e-001	8.684990e-001	8.618020e-001	1.109026e+000	1.103275e+000	1.097559e+000	6.063175e-001	6.131846e-001	6.174156e-001	6.256782e-001	6.309311e-001	9.378449e-001	9.587448e-001	7.184079e-001	7.257517e-001	8.159765e-001	8.296479e-001	8.436486e-001	1.056917e+000	1.049843e+000	1.041856e+000	1.033610e+000	1.025227e+000	1.016510e+000	1.008630e+000	9.978375e-001	9.891687e-001	9.852947e-001	9.634445e-001	6.798489e-001	6.082345e-001	5.912934e-001	5.875478e-001	7.375043e-001	7.446235e-001	7.562430e-001	7.631337e-001	7.751462e-001	7.857128e-001	7.968507e-001	9.803434e-001	1.002244e+000	1.009990e+000	1.009764e+000	1.008184e+000	9.070444e-001	9.145786e-001	1.026001e+000	1.052624e+000	1.078666e+000	8.574125e-001	8.711281e-001	8.856724e-001	9.025869e-001	9.198887e-001	6.402918e-001	6.463764e-001	6.562982e-001	6.647918e-001	1.075803e+000	1.069555e+000	9.518025e-001	9.641214e-001	8.587633e-001	8.535295e-001	8.522312e-001	8.493416e-001	1.184490e+000	1.168426e+000	1.168193e+000	1.286645e+000	1.196949e+000	1.094310e+000	1.125890e+000	1.239348e+000	1.093331e+000	1.160460e+000	1.118628e+000	1.258709e+000	1.074247e+000	1.148421e+000	6.867066e-001	1.183066e+000	1.153230e+000	1.218954e+000	1.128879e+000	1.080692e+000	9.246931e-001	1.120557e+000	8.599573e-001	1.011946e+000	9.995581e-001	9.602560e-001	9.545851e-001	8.979631e-001	1.224445e+000	8.915371e-001	9.778872e-001	9.664584e-001	8.352120e-001	1.109574e+000	1.062070e+000	1.257183e+000	1.129140e+000	1.066331e+000	1.178137e+000	1.114954e+000	1.313001e+000	1.242426e+000	1.128957e+000	9.978346e-001	6.099171e-001	6.183633e-001	1.131160e+000	1.186226e+000	1.147472e+000	1.286973e+000	1.193378e+000	1.058709e+000	1.207108e+000	1.187918e+000	5.951240e-001	1.091897e+000	1.088302e+000	1.082378e+000	6.014386e-001	7.042976e-001	7.231026e-001	9.908483e-001	1.176687e+000	1.199046e+000	1.110733e+000	1.004430e+000	1.000593e+000	9.890948e-001	9.968038e-001	9.966418e-001	1.051478e+000	1.138001e+000	8.992913e-001	1.023596e+000	1.036847e+000	9.117733e-001	1.106957e+000	1.002584e+000	1.005978e+000	9.396157e-001	9.266407e-001	9.361299e-001	1.043488e+000	1.027556e+000	1.013166e+000	1.003599e+000	8.671782e-001	8.774820e-001	8.862410e-001	8.842658e-001	8.725664e-001	1.104205e+000	1.098849e+000	6.307936e-001	6.448789e-001	9.696870e-001	7.424151e-001	8.554926e-001	9.881200e-001	1.048993e+000	1.033977e+000	1.018785e+000	1.007521e+000	9.976276e-001	9.971826e-001	1.012415e+000	8.597145e-001	6.291116e-001	5.921766e-001	5.923012e-001	5.891844e-001	5.916843e-001	7.618100e-001	7.806947e-001	7.985171e-001	8.068012e-001	8.206710e-001	9.916503e-001	1.012301e+000	1.008103e+000	1.008422e+000	1.006824e+000	9.082960e-001	9.158132e-001	1.033259e+000	1.057108e+000	1.081423e+000	1.104843e+000	8.711743e-001	8.853461e-001	8.996471e-001	9.158755e-001	9.358524e-001	9.492741e-001	6.600825e-001	6.749428e-001	1.077664e+000	1.071557e+000	9.484293e-001	9.713910e-001	9.817494e-001	8.637452e-001	8.589838e-001	1.135908e+000	1.184032e+000	1.179968e+000	1.153387e+000	1.026891e+000	1.125756e+000	1.180679e+000	1.154686e+000	1.178631e+000	1.127295e+000	1.167214e+000	1.144996e+000	1.166572e+000	1.237423e+000	1.240522e+000	1.099398e+000	9.993030e-001	6.963158e-001	1.143059e+000	1.004280e+000	1.093410e+000	9.714329e-001	1.146332e+000	1.161650e+000	8.949189e-001	1.029642e+000	9.676669e-001	9.343402e-001	1.088701e+000	1.099863e+000	1.077518e+000	1.063883e+000	1.178227e+000	1.114967e+000	1.120040e+000	1.089152e+000	7.299925e-001	6.000272e-001	9.865495e-001	9.956814e-001	1.164531e+000	1.169126e+000	1.293205e+000	1.076904e+000	1.094113e+000	1.192330e+000	1.110545e+000	1.221336e+000	1.144120e+000	9.246664e-001	1.225469e+000	9.871635e-001	9.733902e-001	1.109863e+000	1.266943e+000	1.064842e+000	1.120413e+000	9.939393e-001	1.265872e+000	1.192692e+000	1.009409e+000	1.210309e+000	1.194932e+000	6.