# vtk DataFile Version 3.0
vtk output
ASCII
DATASET UNSTRUCTURED_GRID
POINTS 5233 float
9.997500e-001	-3.632553e-005	0.0	9.990000e-001	-1.450372e-004	0.0	9.977600e-001	-3.227432e-004	0.0	9.960200e-001	-5.642763e-004	0.0	9.937800e-001	-8.548240e-004	0.0	9.910500e-001	-1.168720e-003	0.0	9.878400e-001	-1.474822e-003	0.0	9.841300e-001	-1.748751e-003	0.0	9.799500e-001	-1.981163e-003	0.0	9.752800e-001	-2.198741e-003	0.0	9.701500e-001	-2.461567e-003	0.0	9.645400e-001	-2.856752e-003	0.0	9.584700e-001	-3.468994e-003	0.0	9.519400e-001	-4.356041e-003	0.0	9.449600e-001	-5.527317e-003	0.0	9.375400e-001	-6.942155e-003	0.0	9.296900e-001	-8.523458e-003	0.0	9.214000e-001	-1.018345e-002	0.0	9.127000e-001	-1.183207e-002	0.0	9.035800e-001	-1.340645e-002	0.0	8.940600e-001	-1.486298e-002	0.0	8.841500e-001	-1.618375e-002	0.0	8.738500e-001	-1.737098e-002	0.0	8.631800e-001	-1.843782e-002	0.0	8.521600e-001	-1.940649e-002	0.0	8.407700e-001	-2.030717e-002	0.0	8.290500e-001	-2.116693e-002	0.0	8.170100e-001	-2.201537e-002	0.0	8.046400e-001	-2.288166e-002	0.0	7.919700e-001	-2.378928e-002	0.0	7.790100e-001	-2.475918e-002	0.0	7.657800e-001	-2.580693e-002	0.0	7.522800e-001	-2.694477e-002	0.0	7.385200e-001	-2.817932e-002	0.0	7.245300e-001	-2.951067e-002	0.0	7.103200e-001	-3.093645e-002	0.0	6.958900e-001	-3.245196e-002	0.0	6.812700e-001	-3.404672e-002	0.0	6.664700e-001	-3.571026e-002	0.0	6.515000e-001	-3.743091e-002	0.0	6.363800e-001	-3.919515e-002	0.0	6.211300e-001	-4.098922e-002	0.0	6.057600e-001	-4.280065e-002	0.0	5.902800e-001	-4.461733e-002	0.0	5.747100e-001	-4.642649e-002	0.0	5.590600e-001	-4.821707e-002	0.0	5.433600e-001	-4.997630e-002	0.0	5.276100e-001	-5.169536e-002	0.0	5.118400e-001	-5.336261e-002	0.0	4.960500e-001	-5.497003e-002	0.0	4.802700e-001	-5.650688e-002	0.0	4.645100e-001	-5.796478e-002	0.0	4.487800e-001	-5.933555e-002	0.0	4.331100e-001	-6.060957e-002	0.0	4.175000e-001	-6.178001e-002	0.0	4.019700e-001	-6.283865e-002	0.0	3.865400e-001	-6.377772e-002	0.0	3.712300e-001	-6.459001e-002	0.0	3.560400e-001	-6.526978e-002	0.0	3.409900e-001	-6.581072e-002	0.0	3.261100e-001	-6.620714e-002	0.0	3.114000e-001	-6.645508e-002	0.0	2.968700e-001	-6.655086e-002	0.0	2.825500e-001	-6.649174e-002	0.0	2.684500e-001	-6.627629e-002	0.0	2.545700e-001	-6.590367e-002	0.0	2.409400e-001	-6.537483e-002	0.0	2.275700e-001	-6.469153e-002	0.0	2.144700e-001	-6.385649e-002	0.0	2.016600e-001	-6.287421e-002	0.0	1.891400e-001	-6.174865e-002	0.0	1.769300e-001	-6.048632e-002	0.0	1.650400e-001	-5.909374e-002	0.0	1.534900e-001	-5.757946e-002	0.0	1.422900e-001	-5.595164e-002	0.0	1.314400e-001	-5.421716e-002	0.0	1.209500e-001	-5.238445e-002	0.0	1.108500e-001	-5.046602e-002	0.0	1.011300e-001	-4.846717e-002	0.0	9.181000e-002	-4.639871e-002	0.0	8.290000e-002	-4.426950e-002	0.0	7.440000e-002	-4.208549e-002	0.0	6.633000e-002	-3.985727e-002	0.0	5.869000e-002	-3.758972e-002	0.0	5.149000e-002	-3.528984e-002	0.0	4.474000e-002	-3.296423e-002	0.0	3.844000e-002	-3.061541e-002	0.0	3.260000e-002	-2.824865e-002	0.0	2.723000e-002	-2.586916e-002	0.0	2.232000e-002	-2.347215e-002	0.0	1.790000e-002	-2.107188e-002	0.0	1.395000e-002	-1.865624e-002	0.0	1.049000e-002	-1.623468e-002	0.0	7.520000e-003	-1.380515e-002	0.0	5.040000e-003	-1.136377e-002	0.0	3.050000e-003	-8.903440e-003	0.0	1.560000e-003	-6.429402e-003	0.0	5.600000e-004	-3.907481e-003	0.0	6.000000e-005	-1.312443e-003	0.0	0.000000e+000	0.000000e+000	0.0	6.000000e-005	1.219195e-003	0.0	5.600000e-004	3.467616e-003	0.0	1.560000e-003	5.547693e-003	0.0	3.050000e-003	7.526697e-003	0.0	5.040000e-003	9.452935e-003	0.0	7.520000e-003	1.133357e-002	0.0	1.049000e-002	1.318068e-002	0.0	1.395000e-002	1.500086e-002	0.0	1.790000e-002	1.679751e-002	0.0	2.232000e-002	1.856451e-002	0.0	2.723000e-002	2.031107e-002	0.0	3.260000e-002	2.202684e-002	0.0	3.844000e-002	2.371540e-002	0.0	4.474000e-002	2.537330e-002	0.0	5.149000e-002	2.699744e-002	0.0	5.869000e-002	2.858713e-002	0.0	6.633000e-002	3.013934e-002	0.0	7.440000e-002	3.165138e-002	0.0	8.290000e-002	3.312255e-002	0.0	9.181000e-002	3.454887e-002	0.0	1.011300e-001	3.593003e-002	0.0	1.108500e-001	3.726425e-002	0.0	1.209500e-001	3.854887e-002	0.0	1.314400e-001	3.978529e-002	0.0	1.422900e-001	4.097034e-002	0.0	1.534900e-001	4.210371e-002	0.0	1.650400e-001	4.318628e-002	0.0	1.769300e-001	4.421803e-002	0.0	1.891400e-001	4.519843e-002	0.0	2.016600e-001	4.612808e-002	0.0	2.144700e-001	4.700709e-002	0.0	2.275700e-001	4.783704e-002	0.0	2.409400e-001	4.861821e-002	0.0	2.545700e-001	4.935150e-002	0.0	2.684500e-001	5.003766e-002	0.0	2.825500e-001	5.067632e-002	0.0	2.968700e-001	5.126822e-002	0.0	3.114000e-001	5.181318e-002	0.0	3.261100e-001	5.230980e-002	0.0	3.409900e-001	5.275696e-002	0.0	3.560400e-001	5.315309e-002	0.0	3.712300e-001	5.349519e-002	0.0	3.865400e-001	5.378006e-002	0.0	4.019700e-001	5.400431e-002	0.0	4.175000e-001	5.416371e-002	0.0	4.331100e-001	5.425382e-002	0.0	4.487800e-001	5.427020e-002	0.0	4.645100e-001	5.420847e-002	0.0	4.802700e-001	5.406467e-002	0.0	4.960500e-001	5.383534e-002	0.0	5.118400e-001	5.351769e-002	0.0	5.276100e-001	5.311032e-002	0.0	5.433600e-001	5.261220e-002	0.0	5.590600e-001	5.202418e-002	0.0	5.747100e-001	5.134708e-002	0.0	5.902800e-001	5.058374e-002	0.0	6.057600e-001	4.973668e-002	0.0	6.211300e-001	4.880917e-002	0.0	6.363800e-001	4.780363e-002	0.0	6.515000e-001	4.672180e-002	0.0	6.664700e-001	4.556512e-002	0.0	6.812700e-001	4.433400e-002	0.0	6.958900e-001	4.302683e-002	0.0	7.103200e-001	4.164090e-002	0.0	7.245300e-001	4.017489e-002	0.0	7.385200e-001	3.862462e-002	0.0	7.522800e-001	3.698769e-002	0.0	7.657800e-001	3.526613e-002	0.0	7.790100e-001	3.346256e-002	0.0	7.919700e-001	3.158163e-002	0.0	8.046400e-001	2.963463e-002	0.0	8.170100e-001	2.763526e-002	0.0	8.290500e-001	2.560360e-002	0.0	8.407700e-001	2.355469e-002	0.0	8.521600e-001	2.150640e-002	0.0	8.631800e-001	1.947978e-002	0.0	8.738500e-001	1.748079e-002	0.0	8.841500e-001	1.551790e-002	0.0	8.940600e-001	1.359629e-002	0.0	9.035800e-001	1.171772e-002	0.0	9.127000e-001	9.892446e-003	0.0	9.214000e-001	8.146298e-003	0.0	9.296900e-001	6.517168e-003	0.0	9.375400e-001	5.067059e-003	0.0	9.449600e-001	3.855727e-003	0.0	9.519400e-001	2.933572e-003	0.0	9.584700e-001	2.316404e-003	0.0	9.645400e-001	1.972017e-003	0.0	9.701500e-001	1.823188e-003	0.0	9.752800e-001	1.769405e-003	0.0	9.799500e-001	1.715709e-003	0.0	9.841300e-001	1.599681e-003	0.0	9.878400e-001	1.400522e-003	0.0	9.910500e-001	1.136589e-003	0.0	9.937800e-001	8.433422e-004	0.0	9.960200e-001	5.611260e-004	0.0	9.977600e-001	3.221631e-004	0.0	9.990000e-001	1.449845e-004	0.0	9.997500e-001	3.632470e-005	0.0	1.000000e+000	0.000000e+000	0.0	1.984229e+001	2.506660e+000	0.0	1.937166e+001	4.973800e+000	0.0	1.859553e+001	7.362490e+000	0.0	1.752613e+001	9.635070e+000	0.0	1.618034e+001	1.175571e+001	0.0	1.457937e+001	1.369094e+001	0.0	1.274848e+001	1.541027e+001	0.0	1.071654e+001	1.688656e+001	0.0	8.515590e+000	1.809654e+001	0.0	6.180340e+000	1.902113e+001	0.0	3.747630e+000	1.964575e+001	0.0	1.255810e+000	1.996053e+001	0.0	-1.255810e+000	1.996053e+001	0.0	-3.747630e+000	1.964574e+001	0.0	-6.180340e+000	1.902113e+001	0.0	-8.515590e+000	1.809654e+001	0.0	-1.071654e+001	1.688656e+001	0.0	-1.274848e+001	1.541026e+001	0.0	-1.457937e+001	1.369094e+001	0.0	-1.618034e+001	1.175570e+001	0.0	-1.752613e+001	9.635070e+000	0.0	-1.859553e+001	7.362490e+000	0.0	-1.937166e+001	4.973800e+000	0.0	-1.984229e+001	2.506660e+000	0.0	-2.000000e+001	0.000000e+000	0.0	-1.984229e+001	-2.506670e+000	0.0	-1.937166e+001	-4.973800e+000	0.0	-1.859553e+001	-7.362490e+000	0.0	-1.752613e+001	-9.635080e+000	0.0	-1.618034e+001	-1.175571e+001	0.0	-1.457937e+001	-1.369094e+001	0.0	-1.274848e+001	-1.541027e+001	0.0	-1.071653e+001	-1.688656e+001	0.0	-8.515580e+000	-1.809654e+001	0.0	-6.180340e+000	-1.902113e+001	0.0	-3.747620e+000	-1.964575e+001	0.0	-1.255810e+000	-1.996053e+001	0.0	1.255810e+000	-1.996053e+001	0.0	3.747630e+000	-1.964574e+001	0.0	6.180340e+000	-1.902113e+001	0.0	8.515590e+000	-1.809654e+001	0.0	1.071654e+001	-1.688656e+001	0.0	1.274848e+001	-1.541026e+001	0.0	1.457937e+001	-1.369094e+001	0.0	1.618034e+001	-1.175570e+001	0.0	1.752614e+001	-9.635070e+000	0.0	1.859553e+001	-7.362490e+000	0.0	1.937166e+001	-4.973790e+000	0.0	1.984229e+001	-2.506660e+000	0.0	2.000000e+001	0.000000e+000	0.0	6.057553e-002	-4.568471e-002	0.0	6.603839e-001	-5.048442e-002	0.0	4.254851e-001	6.843890e-002	0.0	6.898730e-001	5.684134e-002	0.0	3.794505e-001	-7.804508e-002	0.0	9.994596e-001	-7.010101e-004	0.0	9.985477e-001	-1.280355e-003	0.0	7.735929e-001	-3.762807e-002	0.0	6.899384e-001	-4.689173e-002	0.0	-1.082335e-003	5.366398e-003	0.0	7.466400e-001	-4.043562e-002	0.0	5.833415e-001	6.504947e-002	0.0	9.927587e-001	-3.425661e-003	0.0	9.898360e-001	-4.182412e-003	0.0	5.989275e-001	6.415697e-002	0.0	7.187268e-001	-4.352141e-002	0.0	-1.419285e-003	6.039007e-004	0.0	9.864145e-001	-4.942491e-003	0.0	9.825067e-001	-5.688377e-003	0.0	-1.217225e-003	-6.073922e-003	0.0	6.453557e-001	-5.233928e-002	0.0	8.241938e-001	-3.261034e-002	0.0	7.994711e-001	-3.506695e-002	0.0	3.483893e-001	6.675575e-002	0.0	8.476247e-001	-3.011084e-002	0.0	2.472380e-001	6.153889e-002	0.0	8.696906e-001	-2.737121e-002	0.0	1.041566e-002	1.734909e-002	0.0	8.902664e-001	-2.424327e-002	0.0	7.680664e-002	-5.090347e-002	0.0	9.092566e-001	-2.069003e-002	0.0	-1.702007e-003	-3.021269e-003	0.0	9.421172e-001	-1.324558e-002	0.0	9.265637e-001	-1.688408e-002	0.0	1.796412e-002	-2.632772e-002	0.0	4.261532e-001	-7.536889e-002	0.0	8.588384e-001	-2.877981e-002	0.0	9.559079e-001	-1.025181e-002	0.0	9.781107e-001	-6.445882e-003	0.0	9.679222e-001	-8.071896e-003	0.0	1.579916e-001	-6.874507e-002	0.0	8.999681e-001	-2.251521e-002	0.0	7.602460e-001	-3.899777e-002	0.0	9.971228e-001	-1.994243e-003	0.0	5.994388e-001	-5.799096e-002	0.0	4.418769e-001	-7.422523e-002	0.0	5.368017e-001	-6.527275e-002	0.0	4.734813e-001	-7.160677e-002	0.0	5.051611e-001	-6.860066e-002	0.0	4.893112e-001	-7.014808e-002	0.0	1.246658e-001	-6.276647e-002	0.0	2.781261e-002	-3.199324e-002	0.0	3.949279e-001	-7.728670e-002	0.0	4.610595e-002	-4.030
[...]
POINT_DATA 5233

SCALARS Density float 1
LOOKUP_TABLE default
1.167756e+000	1.143333e+000	1.125097e+000	1.108607e+000	1.094014e+000	1.083175e+000	1.078391e+000	1.081164e+000	1.090452e+000	1.103126e+000	1.115108e+000	1.122673e+000	1.123644e+000	1.117370e+000	1.104322e+000	1.085890e+000	1.064011e+000	1.040972e+000	1.019447e+000	1.001864e+000	9.897109e-001	9.832644e-001	9.818254e-001	9.841746e-001	9.889965e-001	9.950884e-001	1.001552e+000	1.007712e+000	1.013105e+000	1.017450e+000	1.020582e+000	1.022428e+000	1.023018e+000	1.022361e+000	1.020600e+000	1.017782e+000	1.014073e+000	1.009562e+000	1.004391e+000	9.986754e-001	9.925308e-001	9.860764e-001	9.793797e-001	9.725273e-001	9.658014e-001	9.596102e-001	9.535899e-001	9.467040e-001	9.414823e-001	9.462213e-001	9.581832e-001	9.407776e-001	8.275287e-001	7.074346e-001	6.775964e-001	6.898537e-001	6.995061e-001	7.046993e-001	7.093591e-001	7.154762e-001	7.227621e-001	7.306713e-001	7.391754e-001	7.483070e-001	7.580622e-001	7.684398e-001	7.794408e-001	7.909981e-001	8.029628e-001	8.152147e-001	8.276687e-001	8.403675e-001	8.534011e-001	8.668350e-001	8.806025e-001	8.945403e-001	9.085800e-001	9.227701e-001	9.371262e-001	9.516319e-001	9.663653e-001	9.813467e-001	9.966631e-001	1.012402e+000	1.028696e+000	1.045740e+000	1.063709e+000	1.082875e+000	1.103615e+000	1.126195e+000	1.151057e+000	1.178698e+000	1.209185e+000	1.242480e+000	1.277476e+000	1.312048e+000	1.338558e+000	1.350623e+000	1.333090e+000	1.296319e+000	1.268204e+000	1.202396e+000	1.085474e+000	1.000154e+000	9.392892e-001	8.972386e-001	8.687873e-001	8.490307e-001	8.342767e-001	8.227175e-001	8.132945e-001	8.052580e-001	7.983300e-001	7.920857e-001	7.863874e-001	7.813229e-001	7.767911e-001	7.725753e-001	7.684853e-001	7.643900e-001	7.604098e-001	7.568145e-001	7.537235e-001	7.509413e-001	7.482247e-001	7.455458e-001	7.430941e-001	7.408816e-001	7.388240e-001	7.369013e-001	7.352764e-001	7.340830e-001	7.333366e-001	7.329015e-001	7.326324e-001	7.323888e-001	7.320807e-001	7.316245e-001	7.309265e-001	7.299387e-001	7.286559e-001	7.270885e-001	7.251912e-001	7.228820e-001	7.201082e-001	7.169229e-001	7.133641e-001	7.095397e-001	7.054363e-001	7.011402e-001	6.965517e-001	6.916759e-001	6.866731e-001	6.818701e-001	6.775526e-001	6.738769e-001	6.704455e-001	6.658397e-001	6.559889e-001	6.413289e-001	6.391083e-001	7.282164e-001	9.047527e-001	9.714453e-001	9.591813e-001	9.440404e-001	9.430041e-001	9.467234e-001	9.512208e-001	9.574290e-001	9.658150e-001	9.756095e-001	9.860711e-001	9.967700e-001	1.007406e+000	1.017798e+000	1.027937e+000	1.038049e+000	1.048519e+000	1.059861e+000	1.072375e+000	1.085989e+000	1.099942e+000	1.112976e+000	1.123453e+000	1.129731e+000	1.130431e+000	1.124855e+000	1.113366e+000	1.098000e+000	1.082626e+000	1.071490e+000	1.068045e+000	1.073277e+000	1.085174e+000	1.100845e+000	1.118009e+000	1.136662e+000	1.158193e+000	1.147610e+000	9.996117e-001	9.997926e-001	9.997374e-001	9.996210e-001	9.995106e-001	9.993791e-001	9.992234e-001	9.990305e-001	9.988231e-001	9.986735e-001	9.985856e-001	9.986448e-001	9.988182e-001	9.991661e-001	9.994633e-001	9.997137e-001	9.998616e-001	9.999604e-001	1.000030e+000	1.000066e+000	1.000091e+000	1.000104e+000	1.000117e+000	1.000127e+000	1.000136e+000	1.000147e+000	1.000164e+000	1.000185e+000	1.000214e+000	1.000258e+000	1.000307e+000	1.000391e+000	1.000475e+000	1.000621e+000	1.000764e+000	1.000947e+000	1.001150e+000	1.001250e+000	1.001296e+000	1.001217e+000	1.001121e+000	1.000965e+000	1.000818e+000	1.000671e+000	1.000533e+000	1.000381e+000	1.000270e+000	1.000216e+000	9.998692e-001	9.994630e-001	1.015363e+000	1.001435e+000	7.228365e-001	8.339253e-001	7.096759e-001	1.148668e+000	1.134398e+000	1.020398e+000	1.011061e+000	1.204087e+000	1.021272e+000	6.809308e-001	1.094370e+000	1.087389e+000	6.770550e-001	1.017948e+000	1.297710e+000	1.085474e+000	1.088827e+000	1.339850e+000	9.958706e-001	1.006355e+000	1.015178e+000	7.328032e-001	9.962980e-001	7.371638e-001	9.899919e-001	9.084703e-001	9.951976e-001	9.840903e-001	1.018083e+000	1.341308e+000	1.089965e+000	1.054519e+000	1.153951e+000	6.836417e-001	9.922381e-001	1.110637e+000	1.095881e+000	1.110517e+000	8.702083e-001	1.004362e+000	1.021367e+000	1.118666e+000	9.772439e-001	7.450355e-001	9.527026e-001	9.702505e-001	9.444783e-001	9.575478e-001	9.115231e-001	1.107144e+000	7.023546e-001	1.048985e+000	6.898927e-001	7.353521e-001	7.200904e-001	1.086435e+000	7.529877e-001	1.073365e+000	8.837521e-001	8.317118e-001	9.690716e-001	9.398378e-001	9.645835e-001	8.570423e-001	9.837049e-001	9.906374e-001	1.129575e+000	1.105305e+000	1.239909e+000	8.626483e-001	1.035381e+000	1.102763e+000	1.104052e+000	1.124678e+000	1.001239e+000	7.838746e-001	9.589321e-001	1.020083e+000	1.018312e+000	9.255963e-001	8.071685e-001	9.707394e-001	1.006546e+000	1.031809e+000	1.271307e+000	1.180504e+000	7.140857e-001	8.442497e-001	1.181965e+000	7.952988e-001	9.543372e-001	7.438785e-001	7.729874e-001	9.114523e-001	1.014892e+000	1.267246e+000	1.326691e+000	6.946689e-001	1.317130e+000	8.341579e-001	7.992043e-001	8.143682e-001	7.637492e-001	7.255916e-001	1.112017e+000	6.995498e-001	7.124198e-001	1.102227e+000	1.118479e+000	1.045298e+000	7.084411e-001	7.196847e-001	7.298636e-001	1.090815e+000	1.066960e+000	7.822131e-001	1.091341e+000	1.120582e+000	1.111662e+000	7.723328e-001	7.929474e-001	7.358036e-001	7.366087e-001	7.480126e-001	7.347338e-001	7.162072e-001	7.279343e-001	7.537912e-001	7.602363e-001	6.673214e-001	7.431240e-001	7.392713e-001	6.416043e-001	6.850396e-001	9.479285e-001	9.743129e-001	9.670016e-001	9.549395e-001	1.005514e+000	9.854011e-001	1.055791e+000	1.025449e+000	1.118130e+000	1.078790e+000	1.111997e+000	1.015554e+000	1.035290e+000	9.757517e-001	9.954066e-001	9.507700e-001	9.599751e-001	9.777308e-001	9.538604e-001	6.537823e-001	6.566857e-001	6.897021e-001	6.733262e-001	7.410108e-001	7.380142e-001	7.507797e-001	7.454921e-001	8.063074e-001	7.569908e-001	8.824974e-001	8.235306e-001	8.193386e-001	9.911456e-001	1.113116e+000	1.011122e+000	7.273649e-001	9.458493e-001	1.052268e+000	8.469064e-001	9.435286e-001	7.772165e-001	7.873708e-001	7.361926e-001	7.677728e-001	1.082281e+000	1.077769e+000	7.353443e-001	1.079404e+000	1.086700e+000	7.339038e-001	7.314631e-001	1.102160e+000	1.171844e+000	1.127859e+000	1.142565e+000	9.899164e-001	1.067135e+000	1.098180e+000	7.041428e-001	1.301454e+000	1.209309e+000	9.994895e-001	8.975763e-001	7.627012e-001	7.987785e-001	1.190723e+000	1.249405e+000	7.686497e-001	1.011971e+000	1.032410e+000	1.229399e+000	6.892641e-001	1.008074e+000	1.018468e+000	1.091174e+000	7.414125e-001	9.994670e-001	1.006244e+000	9.718001e-001	1.322176e+000	8.244298e-001	1.176178e+000	1.103064e+000	8.876481e-001	1.015186e+000	9.986189e-001	8.440621e-001	9.867056e-001	7.149946e-001	1.008517e+000	1.016404e+000	9.737427e-001	8.883205e-001	6.532682e-001	1.004164e+000	7.760763e-001	7.536046e-001	7.567308e-001	1.032736e+000	1.085166e+000	7.371063e-001	7.075008e-001	1.110865e+000	1.042263e+000	1.088644e+000	1.111343e+000	1.089890e+000	7.427225e-001	7.381055e-001	7.441249e-001	7.810439e-001	1.003622e+000	8.366865e-001	9.386366e-001	7.636262e-001	8.212372e-001	1.103218e+000	1.096104e+000	1.051984e+000	8.744583e-001	1.183120e+000	1.117974e+000	1.106125e+000	1.017794e+000	1.128253e+000	1.256910e+000	1.327071e+000	1.307810e+000	1.151653e+000	1.187576e+000	1.017646e+000	1.124191e+000	1.102469e+000	7.286169e-001	9.583725e-001	1.090733e+000	9.982026e-001	6.848849e-001	1.095049e+000	1.332139e+000	7.160936e-001	7.309523e-001	1.002535e+000	7.401825e-001	9.977532e-001	1.001605e+000	1.001951e+000	1.018981e+000	1.047661e+000	1.089545e+000	1.107452e+000	1.098218e+000	1.104109e+000	1.093475e+000	9.149802e-001	1.019860e+000	1.019660e+000	1.112409e+000	9.554356e-001	9.633136e-001	9.492998e-001	1.128872e+000	7.032609e-001	6.901966e-001	7.334291e-001	1.068705e+000	1.063189e+000	1.077566e+000	9.011935e-001	9.572208e-001	9.636410e-001	9.816022e-001	1.101944e+000	1.097822e+000	1.017584e+000	1.019222e+000	9.429650e-001	9.288788e-001	9.693510e-001	9.754529e-001	1.050927e+000	1.033973e+000	1.202089e+000	7.263500e-001	7.205621e-001	8.616710e-001	8.491135e-001	8.124111e-001	8.007605e-001	7.590249e-001	7.499452e-001	7.895345e-001	1.289637e+000	1.283610e+000	8.308248e-001	1.085602e+000	7.028245e-001	7.118243e-001	7.158743e-001	7.194895e-001	1.096397e+000	1.108614e+000	1.082576e+000	7.228841e-001	7.259129e-001	7.329558e-001	1.072302e+000	1.107197e+000	8.054255e-001	8.128242e-001	7.416681e-001	7.408423e-001	7.600185e-001	7.676215e-001	7.717071e-001	9.691004e-001	9.550298e-001	9.633437e-001	9.632257e-001	9.947193e-001	1.061991e+000	1.023238e+000	1.013708e+000	9.855560e-001	9.768396e-001	9.593493e-001	9.562492e-001	9.801613e-001	9.439662e-001	6.465029e-001	6.661225e-001	6.935113e-001	6.980630e-001	6.739337e-001	6.801960e-001	7.458957e-001	7.481435e-001	7.507618e-001	7.536909e-001	9.108815e-001	8.419022e-001	8.548246e-001	1.013543e+000	1.010051e+000	9.471987e-001	9.525313e-001	1.070529e+000	8.700115e-001	7.866054e-001	7.925458e-001	7.389002e-001	7.395610e-001	7.345970e-001	7.359515e-001	1.100791e+000	1.092315e+000	9.875325e-001	9.932562e-001	1.087469e+000	1.307612e+000	7.788403e-001	1.313494e+000	7.186857e-001	7.753663e-001	1.016927e+000	9.583676e-001	1.043624e+000	1.090885e+000	1.088948e+000	1.103652e+000	1.082616e+000	1.096031e+000	1.130509e+000	1.148372e+000	1.116737e+000	1.170163e+000	1.149042e+000	1.276888e+000	9.752551e-001	1.056388e+000	1.095767e+000	6.985238e-001	1.137182e+000	1.243187e+000	1.012415e+000	1.287264e+000	1.015080e+000	1.171263e+000	1.004644e+000	1.218990e+000	7.482247e-001	1.004204e+000	1.009228e+000	1.101305e+000	1.194931e+000	1.092911e+000	7.114121e-001	1.102318e+000	6.572912e-001	1.103071e+000	7.158187e-001	7.451396e-001	7.416441e-001	7.666861e-001	8.177120e-001	1.140176e+000	1.300096e+000	1.179038e+000	9.339707e-001	1.233630e+000	1.096943e+000	9.898691e-001	1.306493e+000	8.923791e-001	9.179699e-001	1.127688e+000	9.959914e-001	1.003725e+000	9.720171e-001	7.093427e-001	1.089784e+000	1.104169e+000	1.048451e+000	1.039394e+000	7.425932e-001	7.442361e-001	7.491745e-001	7.901494e-001	1.000983e+000	1.005265e+000	8.423677e-001	9.623046e-001	7.704586e-001	1.097101e+000	1.110886e+000	1.036403e+000	1.131047e+000	1.266075e+000	1.312750e+000	1.107321e+000	1.155620e+000	1.145973e+000	1.097411e+000	1.093054e+000	6.938311e-001	7.778270e-001	7.344244e-001	1.007501e+000	1.005340e+000	1.007345e+000	1.012687e+000	1.020309e+000	1.004920e+000	1.020789e+000	1.031382e+000	1.088081e+000	1.093941e+000	1.092683e+000	1.018577e+000	1.018021e+000	1.108653e+000	9.652629e-001	9.568742e-001	7.055437e-001	7.042474e-001	1.088350e+000	1.068690e+000	1.079479e+000	9.191995e-001	9.056141e-001	9.632091e-001	9.684062e-001	1.096099e+000	1.094089e+000	1.016993e+000	1.018080e+000	9.609147e-001	9.467265e-001	9.328987e-001	9.740537e-001	9.798896e-001	1.070383e+000	1.052991e+000	1.036230e+000	7.402328e-001	7.334674e-001	7.269701e-001	8.796746e-001	8.671348e-001	8.546842e-001	8.302766e-001	8.184839e-001	7.657790e-001	7.567641e-001	8.070219e-001	8.465904e-001	7.197111e-001	7.233575e-001	1.101040e+000	7.266058e-001	7.295665e-001	7.321407e-001	7.363965e-001	1.075760e+000	8.262620e-001	8.358265e-001	7.461936e-001	7.475600e-001	7.747599e-001	7.798269e-001	7.849635e-001	9.620889e-001	1.066785e+000	1.057553e+000	1.030395e+000	1.021474e+000	1.012675e+000	9.949026e-001	9.865393e-001	9.786718e-001	9.674423e-001	9.646100e-001	9.616949e-001	9.749561e-001	9.783110e-001	8.849318e-001	6.625071e-001	7.026716e-001	7.071202e-001	6.729218e-001	6.818654e-001	6.880160e-001	7.511549e-001	7.534304e-001	7.562446e-001	7.594598e-001	7.630609e-001	8.590320e-001	8.736256e-001	1.015081e+000	1.012705e+000	1.010096e+000	9.500631e-001	9.529906e-001	8.906142e-001	9.103359e-001	7.960635e-001	8.028113e-001	8.100032e-001	7.434416e-001	7.381254e-001	7.395214e-001	7.406373e-001	1.098143e+000	1.091987e+000	1.084379e+000	9.855037e-001	9.910042e-001	9.960942e-001	7.960111e-001	7.854290e-001	1.294225e+000	9.788499e-001	1.106369e+000	1.091713e+000	9.621575e-001	1.257462e+000	1.125353e+000	1.052053e+000	1.062425e+000	1.106050e+000	1.095405e+000	7.243369e-001	1.279814e+000	9.822890e-001	1.228304e+000	1.098105e+000	1.100273e+000	1.168799e+000	6.714106e-001	1.129516e+000	1.151811e+000	1.159179e+000	1.015970e+000	8.984483e-001	1.145158e+000	7.237093e-001	9.932767e-001	8.635632e-001	7.837550e-001	1.091088e+000	7.087582e-001	1.097117e+000	1.094471e+000	9.744587e-001	7.785333e-001	7.515710e-001	1.095694e+000	8.395387e-001	1.010521e+000	1.119452e+000	1.092249e+000	1.111590e+000	1.092818e+000	1.165056e+000	1.009921e+000	1.248591e+000	1.012367e+000	1.014946e+000	1.186253e+000	1.099632e+000	1.207558e+000	1.002999e+000	7.196816e-001	7.479202e-001	1.214779e+000	1.013857e+000	7.049086e-001	1.045441e+000	7.469460e-001	7.490378e-001	7.501227e-001	1.002744e+000	1.006281e+000	1.093547e+000	1.049211e+000	1.088867e+000	1.267215e+000	1.297054e+000	1.125104e+000	1.092061e+000	1.093483e+000	7.035467e-001	1.010142e+000	1.009658e+000	1.012860e+000	1.017302e+000	1.022815e+000	1.007855e+000	1.023696e+000	1.032055e+000	1.041716e+000	1.085691e+000	1.089848e+000	1.017405e+000	1.016766e+000	1.105077e+000	9.494599e-001	9.608472e-001	7.170835e-001	7.509828e-001	1.071789e+000	1.079551e+000	9.241768e-001	9.106292e-001	9.673934e-001	1.092736e+000	1.092691e+000	1.015910e+000	1.017204e+000	9.648433e-001	9.511275e-001	9.377101e-001	9.727507e-001	9.782671e-001	1.088699e+000	1.071211e+000	1.054164e+000	1.038091e+000	7.569769e-001	7.489449e-001	7.417729e-001	7.341217e-001	8.861150e-001	8.737864e-001	8.614648e-001	8.493952e-001	8.376233e-001	7.653239e-001	7.744291e-001	8.260887e-001	7.278782e-001	1.095772e+000	1.097504e+000	7.311572e-001	7.339135e-001	7.364694e-001	7.385631e-001	7.405198e-001	8.505175e-001	8.628485e-001	7.531366e-001	7.552196e-001	7.830551e-001	7.882490e-001	7.942757e-001	8.003413e-001	1.070092e+000	1.062032e+000	1.053877e+000	1.037015e+000	1.028731e+000	1.020527e+000	1.011378e+000	9.960546e-001	9.876386e-001	9.800272e-001	9.693512e-001	9.669007e-001	9.650574e-001	9.737368e-001	9.843938e-001	9.527647e-001	8.187629e-001	7.167476e-001	7.116529e-001	6.752315e-001	6.798080e-001	6.893524e-001	6.972661e-001	7.573445e-001	7.599420e-001	7.625582e-001	7.658905e-001	7.695667e-001	7.738647e-001	8.761774e-001	8.917097e-001	1.014511e+000	1.012888e+000	1.011339e+000	9.535139e-001	9.523799e-001	9.570322e-001	9.101036e-001	9.308892e-001	9.544725e-001	8.064546e-001	8.134219e-001	8.216346e-001	8.302603e-001	7.421410e-001	7.436762e-001	7.449026e-001	7.458513e-001	1.077617e+000	1.090101e+000	1.084519e+000	9.836352e-001	9.887128e-001	9.937809e-001	9.982280e-001	8.149457e-001	8.040721e-001	7.937831e-001	1.177548e+000	1.103767e+000	1.088673e+000	1.145189e+000	1.196569e+000	1.013104e+000	9.829798e-001	1.214698e+000	1.091632e+000	1.248620e+000	1.121786e+000	9.064191e-001	7.926887e-001	1.028170e+000	1.127362e+000	1.232288e+000	1.287845e+000	1.290757e+000	1.278080e+000	1.260668e+000	1.108581e+000	7.528816e-001	1.089994e+000	1.097831e+000	1.065540e+000	1.015868e+000	7.371464e-001	1.097915e+000	1.072380e+000	1.087445e+000	7.198819e-001	7.268671e-001	6.982093e-001	9.714408e-001	7.330371e-001	9.619619e-001	7.509255e-001	1.094621e+000	9.969189e-001	1.134820e+000	1.091503e+000	1.290414e+000	1.152062e+000	1.141302e+000	1.057924e+000	1.104984e+000	1.272892e+000	9.990146e-001	1.232292e+000	1.092422e+000	1.160514e+000	1.144999e+000	1.148242e+000	1.158923e+000	7.824776e-001	7.938100e-001	1.092416e+000	7.137696e-001	1.090652e+000	1.094625e+000	1.008370e+000	1.197554e+000	7.534313e-001	7.557208e-001	7.565167e-001	1.001639e+000	1.059237e+000	1.092773e+000	1.278113e+000	1.140843e+000	1.014042e+000	1.014494e+000	1.017731e+000	1.020655e+000	1.011026e+000	1.025601e+000	1.026858e+000	1.032893e+000	1.041133e+000	1.050100e+000	1.083421e+000	1.086620e+000	1.016344e+000	1.101878e+000	9.134591e-001	9.541213e-001	7.459551e-001	8.150555e-001	1.073404e+000	1.078858e+000	9.290161e-001	9.159307e-001	1.091109e+000	1.092491e+000	1.015331e+000	9.689272e-001	9.552704e-001	9.446210e-001	9.734377e-001	1.088424e+000	1.071831e+000	1.055432e+000	1.040384e+000	7.754624e-001	7.650388e-001	7.589645e-001	7.494317e-001	7.413899e-001	8.925208e-001	8.821871e-001	8.679370e-001	8.581299e-001	8.446010e-001	1.092276e+000	1.092968e+000	1.093144e+000	7.354920e-001	7.390702e-001	7.407051e-001	7.434997e-001	7.445032e-001	8.658538e-001	8.793098e-001	7.595505e-001	7.608382e-001	7.960425e-001	8.039255e-001	8.112889e-001	1.064774e+000	1.057955e+000	1.050003e+000	1.042457e+000	1.034425e+000	1.026689e+000	1.018177e+000	1.006293e+000	9.959835e-001	9.831941e-001	9.757412e-001	9.820582e-001	8.395568e-001	6.862644e-001	7.020515e-001	7.646314e-001	7.662234e-001	7.705800e-001	7.724110e-001	7.776692e-001	7.819829e-001	7.870869e-001	8.939895e-001	9.097974e-001	1.014950e+000	1.013934e+000	1.013833e+000	9.605346e-001	9.552890e-001	9.283327e-001	9.499442e-001	9.730402e-001	8.182827e-001	8.256748e-001	8.343865e-001	8.448662e-001	8.550661e-001	7.467367e-001	7.474299e-001	7.493891e-001	7.505497e-001	1.083521e+000	1.077225e+000	9.839742e-001	9.933246e-001	8.353350e-001	8.223070e-001	8.137524e-001	8.015612e-001	1.131643e+000	1.125657e+000	1.201537e+000	1.252982e+000	1.151616e+000	1.088407e+000	1.093404e+000	1.182536e+000	1.088361e+000	1.111706e+000	1.092806e+000	1.260200e+000	1.118413e+000	1.185316e+000	7.563304e-001	1.145149e+000	1.066410e+000	1.152383e+000	1.168605e+000	1.086506e+000	9.581733e-001	1.091642e+000	7.970649e-001	1.067657e+000	1.058069e+000	9.884642e-001	9.866174e-001	9.065501e-001	1.242090e+000	7.783537e-001	1.014882e+000	1.001033e+000	8.100476e-001	1.089977e+000	1.068521e+000	1.211839e+000	1.039000e+000	1.084345e+000	1.139442e+000	1.090458e+000	1.288026e+000	1.252791e+000	1.095683e+000	1.012950e+000	7.373085e-001	7.420488e-001	1.096004e+000	1.143143e+000	1.106754e+000	1.275587e+000	1.145848e+000	1.103424e+000	1.230803e+000	1.216861e+000	7.244286e-001	1.135115e+000	1.087077e+000	1.083817e+000	7.310827e-001	7.594412e-001	7.636671e-001	1.009429e+000	1.095028e+000	1.124112e+000	1.152554e+000	1.019453e+000	1.026090e+000	1.028141e+000	1.036846e+000	1.048461e+000	1.081544e+000	1.099231e+000	8.904760e-001	1.073831e+000	1.077911e+000	9.284654e-001	1.090366e+000	1.014846e+000	1.015727e+000	9.676589e-001	9.490711e-001	9.674761e-001	1.087895e+000	1.071233e+000	1.056084e+000	1.044495e+000	7.793964e-001	7.625300e-001	7.557609e-001	8.824742e-001	8.591282e-001	1.089716e+000	1.089312e+000	7.466360e-001	7.499873e-001	8.957435e-001	7.691990e-001	8.223708e-001	9.925601e-001	1.056298e+000	1.042066e+000	1.027406e+000	1.014529e+000	1.003983e+000	9.780318e-001	9.736701e-001	9.860566e-001	9.404899e-001	7.833231e-001	7.026153e-001	6.997685e-001	7.144970e-001	7.757937e-001	7.831355e-001	7.912109e-001	7.945506e-001	8.022473e-001	9.119259e-001	9.280811e-001	1.016014e+000	1.016055e+000	1.017167e+000	9.578024e-001	9.599426e-001	9.458425e-001	9.668492e-001	9.895411e-001	1.013100e+000	8.312944e-001	8.390967e-001	8.480271e-001	8.592415e-001	8.725014e-001	8.802748e-001	7.524321e-001	7.549107e-001	1.082017e+000	1.076867e+000	9.790316e-001	9.966772e-001	1.003856e+000	8.370073e-001	8.163061e-001	1.099054e+000	1.134057e+000	1.128533e+000	1.111789e+000	1.064956e+000	1.093845e+000	1.141408e+000	1.108343e+000	1.202356e+000	1.160098e+000	1.116968e+000	1.102844e+000	1.095964e+000	1.193927e+000	1.242212e+000	1.086420e+000	1.012807e+000	7.610911e-001	1.103768e+000	1.045112e+000	1.129741e+000	9.045151e-001	1.071683e+000	1.189018e+000	7.824329e-001	1.069185e+000	9.920514e-001	9.626132e-001	1.085332e+000	1.087755e+000	1.114839e+000	1.101484e+000	1.139750e+000	1.089840e+000	1.091425e+000	1.083759e+000	7.686666e-001	7.270732e-001	1.005462e+000	1.030571e+000	1.122607e+000	1.128134e+000	1.270664e+000	1.082858e+000	1.085131e+000	1.146922e+000	1.090257e+000	1.169612e+000	1.174482e+000	9.578024e-001	1.233948e+000	1.019959e+000	1.004083e+000	1.088633e+000	1.233033e+000	1.080213e+000	1.093001e+000	1.009961e+000	1.257002e+000	1.146058e+000	1.045320e+000	1.224696e+000	1.214254e+000	7.