# vtk DataFile Version 3.0
vtk output
ASCII
DATASET UNSTRUCTURED_GRID
POINTS 5233 float
9.997500e-001	-3.632788e-005	0.0	9.990000e-001	-1.451857e-004	0.0	9.977600e-001	-3.243739e-004	0.0	9.960200e-001	-5.730995e-004	0.0	9.937800e-001	-8.868022e-004	0.0	9.910500e-001	-1.257497e-003	0.0	9.878400e-001	-1.677874e-003	0.0	9.841300e-001	-2.150309e-003	0.0	9.799500e-001	-2.683342e-003	0.0	9.752800e-001	-3.309553e-003	0.0	9.701500e-001	-4.071498e-003	0.0	9.645400e-001	-5.026394e-003	0.0	9.584700e-001	-6.217360e-003	0.0	9.519400e-001	-7.666028e-003	0.0	9.449600e-001	-9.356651e-003	0.0	9.375400e-001	-1.123735e-002	0.0	9.296900e-001	-1.322985e-002	0.0	9.214000e-001	-1.524969e-002	0.0	9.127000e-001	-1.720679e-002	0.0	9.035800e-001	-1.903657e-002	0.0	8.940600e-001	-2.069033e-002	0.0	8.841500e-001	-2.214566e-002	0.0	8.738500e-001	-2.340268e-002	0.0	8.631800e-001	-2.447567e-002	0.0	8.521600e-001	-2.539133e-002	0.0	8.407700e-001	-2.618603e-002	0.0	8.290500e-001	-2.689403e-002	0.0	8.170100e-001	-2.755140e-002	0.0	8.046400e-001	-2.819211e-002	0.0	7.919700e-001	-2.884370e-002	0.0	7.790100e-001	-2.952965e-002	0.0	7.657800e-001	-3.026751e-002	0.0	7.522800e-001	-3.107071e-002	0.0	7.385200e-001	-3.194741e-002	0.0	7.245300e-001	-3.290017e-002	0.0	7.103200e-001	-3.392915e-002	0.0	6.958900e-001	-3.503242e-002	0.0	6.812700e-001	-3.620359e-002	0.0	6.664700e-001	-3.743605e-002	0.0	6.515000e-001	-3.872208e-002	0.0	6.363800e-001	-4.005240e-002	0.0	6.211300e-001	-4.141729e-002	0.0	6.057600e-001	-4.280780e-002	0.0	5.902800e-001	-4.421508e-002	0.0	5.747100e-001	-4.562964e-002	0.0	5.590600e-001	-4.704324e-002	0.0	5.433600e-001	-4.844631e-002	0.0	5.276100e-001	-4.983250e-002	0.0	5.118400e-001	-5.119336e-002	0.0	4.960500e-001	-5.252360e-002	0.0	4.802700e-001	-5.381586e-002	0.0	4.645100e-001	-5.506496e-002	0.0	4.487800e-001	-5.626601e-002	0.0	4.331100e-001	-5.741287e-002	0.0	4.175000e-001	-5.850178e-002	0.0	4.019700e-001	-5.952745e-002	0.0	3.865400e-001	-6.048461e-002	0.0	3.712300e-001	-6.136784e-002	0.0	3.560400e-001	-6.217259e-002	0.0	3.409900e-001	-6.289280e-002	0.0	3.261100e-001	-6.352182e-002	0.0	3.114000e-001	-6.405410e-002	0.0	2.968700e-001	-6.448329e-002	0.0	2.825500e-001	-6.480242e-002	0.0	2.684500e-001	-6.500522e-002	0.0	2.545700e-001	-6.508554e-002	0.0	2.409400e-001	-6.503724e-002	0.0	2.275700e-001	-6.485494e-002	0.0	2.144700e-001	-6.453376e-002	0.0	2.016600e-001	-6.406987e-002	0.0	1.891400e-001	-6.345961e-002	0.0	1.769300e-001	-6.270101e-002	0.0	1.650400e-001	-6.179276e-002	0.0	1.534900e-001	-6.073553e-002	0.0	1.422900e-001	-5.953054e-002	0.0	1.314400e-001	-5.817875e-002	0.0	1.209500e-001	-5.668292e-002	0.0	1.108500e-001	-5.505026e-002	0.0	1.011300e-001	-5.328279e-002	0.0	9.181000e-002	-5.138822e-002	0.0	8.290000e-002	-4.937355e-002	0.0	7.440000e-002	-4.724394e-002	0.0	6.633000e-002	-4.500998e-002	0.0	5.869000e-002	-4.267762e-002	0.0	5.149000e-002	-4.025573e-002	0.0	4.474000e-002	-3.775374e-002	0.0	3.844000e-002	-3.517744e-002	0.0	3.260000e-002	-3.253635e-002	0.0	2.723000e-002	-2.984073e-002	0.0	2.232000e-002	-2.709010e-002	0.0	1.790000e-002	-2.430650e-002	0.0	1.395000e-002	-2.148220e-002	0.0	1.049000e-002	-1.863531e-002	0.0	7.520000e-003	-1.577146e-002	0.0	5.040000e-003	-1.289543e-002	0.0	3.050000e-003	-1.001026e-002	0.0	1.560000e-003	-7.136909e-003	0.0	5.600000e-004	-4.257639e-003	0.0	6.000000e-005	-1.385182e-003	0.0	0.000000e+000	0.000000e+000	0.0	6.000000e-005	1.379605e-003	0.0	5.600000e-004	4.287380e-003	0.0	1.560000e-003	7.274507e-003	0.0	3.050000e-003	1.032146e-002	0.0	5.040000e-003	1.343736e-002	0.0	7.520000e-003	1.658897e-002	0.0	1.049000e-002	1.976193e-002	0.0	1.395000e-002	2.294040e-002	0.0	1.790000e-002	2.610838e-002	0.0	2.232000e-002	2.923690e-002	0.0	2.723000e-002	3.232718e-002	0.0	3.260000e-002	3.534845e-002	0.0	3.844000e-002	3.829663e-002	0.0	4.474000e-002	4.115708e-002	0.0	5.149000e-002	4.391743e-002	0.0	5.869000e-002	4.657079e-002	0.0	6.633000e-002	4.910747e-002	0.0	7.440000e-002	5.151950e-002	0.0	8.290000e-002	5.380302e-002	0.0	9.181000e-002	5.594990e-002	0.0	1.011300e-001	5.795839e-002	0.0	1.108500e-001	5.982512e-002	0.0	1.209500e-001	6.154615e-002	0.0	1.314400e-001	6.312347e-002	0.0	1.422900e-001	6.455343e-002	0.0	1.534900e-001	6.583663e-002	0.0	1.650400e-001	6.697511e-002	0.0	1.769300e-001	6.797001e-002	0.0	1.891400e-001	6.882231e-002	0.0	2.016600e-001	6.953436e-002	0.0	2.144700e-001	7.010837e-002	0.0	2.275700e-001	7.054782e-002	0.0	2.409400e-001	7.085553e-002	0.0	2.545700e-001	7.103499e-002	0.0	2.684500e-001	7.108978e-002	0.0	2.825500e-001	7.102378e-002	0.0	2.968700e-001	7.084114e-002	0.0	3.114000e-001	7.054597e-002	0.0	3.261100e-001	7.014314e-002	0.0	3.409900e-001	6.963738e-002	0.0	3.560400e-001	6.903309e-002	0.0	3.712300e-001	6.833597e-002	0.0	3.865400e-001	6.755170e-002	0.0	4.019700e-001	6.668502e-002	0.0	4.175000e-001	6.574177e-002	0.0	4.331100e-001	6.472790e-002	0.0	4.487800e-001	6.364943e-002	0.0	4.645100e-001	6.251081e-002	0.0	4.802700e-001	6.131840e-002	0.0	4.960500e-001	6.007679e-002	0.0	5.118400e-001	5.879006e-002	0.0	5.276100e-001	5.746331e-002	0.0	5.433600e-001	5.609851e-002	0.0	5.590600e-001	5.469931e-002	0.0	5.747100e-001	5.326586e-002	0.0	5.902800e-001	5.180006e-002	0.0	6.057600e-001	5.030107e-002	0.0	6.211300e-001	4.876806e-002	0.0	6.363800e-001	4.719846e-002	0.0	6.515000e-001	4.558907e-002	0.0	6.664700e-001	4.393739e-002	0.0	6.812700e-001	4.224110e-002	0.0	6.958900e-001	4.049731e-002	0.0	7.103200e-001	3.870414e-002	0.0	7.245300e-001	3.686392e-002	0.0	7.385200e-001	3.497749e-002	0.0	7.522800e-001	3.304968e-002	0.0	7.657800e-001	3.109145e-002	0.0	7.790100e-001	2.911455e-002	0.0	7.919700e-001	2.713269e-002	0.0	8.046400e-001	2.516583e-002	0.0	8.170100e-001	2.323521e-002	0.0	8.290500e-001	2.136713e-002	0.0	8.407700e-001	1.958262e-002	0.0	8.521600e-001	1.790580e-002	0.0	8.631800e-001	1.636353e-002	0.0	8.738500e-001	1.497121e-002	0.0	8.841500e-001	1.374527e-002	0.0	8.940600e-001	1.269456e-002	0.0	9.035800e-001	1.181536e-002	0.0	9.127000e-001	1.109145e-002	0.0	9.214000e-001	1.049067e-002	0.0	9.296900e-001	9.961909e-003	0.0	9.375400e-001	9.444234e-003	0.0	9.449600e-001	8.871703e-003	0.0	9.519400e-001	8.191876e-003	0.0	9.584700e-001	7.380008e-003	0.0	9.645400e-001	6.448537e-003	0.0	9.701500e-001	5.443178e-003	0.0	9.752800e-001	4.434078e-003	0.0	9.799500e-001	3.483971e-003	0.0	9.841300e-001	2.647907e-003	0.0	9.878400e-001	1.944767e-003	0.0	9.910500e-001	1.379104e-003	0.0	9.937800e-001	9.318821e-004	0.0	9.960200e-001	5.857821e-004	0.0	9.977600e-001	3.267477e-004	0.0	9.990000e-001	1.454035e-004	0.0	9.997500e-001	3.633134e-005	0.0	1.000000e+000	0.000000e+000	0.0	1.984229e+001	2.506660e+000	0.0	1.937166e+001	4.973800e+000	0.0	1.859553e+001	7.362490e+000	0.0	1.752613e+001	9.635070e+000	0.0	1.618034e+001	1.175571e+001	0.0	1.457937e+001	1.369094e+001	0.0	1.274848e+001	1.541027e+001	0.0	1.071654e+001	1.688656e+001	0.0	8.515590e+000	1.809654e+001	0.0	6.180340e+000	1.902113e+001	0.0	3.747630e+000	1.964575e+001	0.0	1.255810e+000	1.996053e+001	0.0	-1.255810e+000	1.996053e+001	0.0	-3.747630e+000	1.964574e+001	0.0	-6.180340e+000	1.902113e+001	0.0	-8.515590e+000	1.809654e+001	0.0	-1.071654e+001	1.688656e+001	0.0	-1.274848e+001	1.541026e+001	0.0	-1.457937e+001	1.369094e+001	0.0	-1.618034e+001	1.175570e+001	0.0	-1.752613e+001	9.635070e+000	0.0	-1.859553e+001	7.362490e+000	0.0	-1.937166e+001	4.973800e+000	0.0	-1.984229e+001	2.506660e+000	0.0	-2.000000e+001	0.000000e+000	0.0	-1.984229e+001	-2.506670e+000	0.0	-1.937166e+001	-4.973800e+000	0.0	-1.859553e+001	-7.362490e+000	0.0	-1.752613e+001	-9.635080e+000	0.0	-1.618034e+001	-1.175571e+001	0.0	-1.457937e+001	-1.369094e+001	0.0	-1.274848e+001	-1.541027e+001	0.0	-1.071653e+001	-1.688656e+001	0.0	-8.515580e+000	-1.809654e+001	0.0	-6.180340e+000	-1.902113e+001	0.0	-3.747620e+000	-1.964575e+001	0.0	-1.255810e+000	-1.996053e+001	0.0	1.255810e+000	-1.996053e+001	0.0	3.747630e+000	-1.964574e+001	0.0	6.180340e+000	-1.902113e+001	0.0	8.515590e+000	-1.809654e+001	0.0	1.071654e+001	-1.688656e+001	0.0	1.274848e+001	-1.541026e+001	0.0	1.457937e+001	-1.369094e+001	0.0	1.618034e+001	-1.175570e+001	0.0	1.752614e+001	-9.635070e+000	0.0	1.859553e+001	-7.362490e+000	0.0	1.937166e+001	-4.973790e+000	0.0	1.984229e+001	-2.506660e+000	0.0	2.000000e+001	0.000000e+000	0.0	6.046708e-002	-5.077562e-002	0.0	6.601634e-001	-5.203772e-002	0.0	4.261539e-001	7.957920e-002	0.0	6.901463e-001	5.466484e-002	0.0	3.795515e-001	-7.500473e-002	0.0	9.994623e-001	-7.284735e-004	0.0	9.985441e-001	-1.324950e-003	0.0	7.735022e-001	-4.220889e-002	0.0	6.897337e-001	-4.928842e-002	0.0	-1.684472e-003	6.827171e-003	0.0	7.465026e-001	-4.437043e-002	0.0	5.838646e-001	6.680724e-002	0.0	9.927655e-001	-3.579774e-003	0.0	9.898590e-001	-4.434604e-003	0.0	5.994200e-001	6.522690e-002	0.0	7.185508e-001	-4.672154e-002	0.0	-1.700756e-003	8.084946e-004	0.0	9.864619e-001	-5.354369e-003	0.0	9.825847e-001	-6.336025e-003	0.0	-1.637062e-003	-6.699334e-003	0.0	6.451326e-001	-5.346614e-002	0.0	8.242178e-001	-3.813857e-002	0.0	7.994353e-001	-4.018575e-002	0.0	3.489528e-001	8.314273e-002	0.0	8.477097e-001	-3.589132e-002	0.0	2.474489e-001	8.342138e-002	0.0	8.698360e-001	-3.320921e-002	0.0	9.515557e-003	2.455928e-002	0.0	8.904671e-001	-2.990866e-002	0.0	7.677002e-002	-5.600637e-002	0.0	9.094999e-001	-2.594658e-002	0.0	-2.092314e-003	-3.302317e-003	0.0	9.423856e-001	-1.706984e-002	0.0	9.268311e-001	-2.151857e-002	0.0	1.765364e-002	-2.979189e-002	0.0	4.261734e-001	-7.232740e-002	0.0	8.589539e-001	-3.461614e-002	0.0	9.561504e-001	-1.310766e-002	0.0	9.782250e-001	-7.415533e-003	0.0	9.681094e-001	-9.908797e-003	0.0	1.582266e-001	-7.173500e-002	0.0	9.001921e-001	-2.800464e-002	0.0	7.601309e-001	-4.326793e-002	0.0	9.971170e-001	-2.061016e-003	0.0	5.992284e-001	-5.786737e-002	0.0	4.418717e-001	-7.127706e-002	0.0	5.366543e-001	-6.368244e-002	0.0	4.734270e-001	-6.897024e-002	0.0	5.050590e-001	-6.642332e-002	0.0	4.892330e-001	-6.772379e-002	0.0	1.248109e-001	-6.691293e-002	0.0	2.754853e-002	-3.613323e-002	0.0	3.950013e-001	-7.419688e-002	0.0	4.592978e-002	-4.516
[...]
POINT_DATA 5233

SCALARS Density float 1
LOOKUP_TABLE default
1.179925e+000	1.157800e+000	1.144505e+000	1.133729e+000	1.125217e+000	1.119279e+000	1.116080e+000	1.115746e+000	1.117500e+000	1.119819e+000	1.120596e+000	1.117885e+000	1.110203e+000	1.096799e+000	1.077646e+000	1.053492e+000	1.025724e+000	9.960598e-001	9.667879e-001	9.411967e-001	9.226914e-001	9.132228e-001	9.125181e-001	9.185232e-001	9.286577e-001	9.405696e-001	9.526568e-001	9.638306e-001	9.735160e-001	9.815104e-001	9.877698e-001	9.923643e-001	9.954596e-001	9.971464e-001	9.976525e-001	9.970726e-001	9.955965e-001	9.933499e-001	9.904592e-001	9.870603e-001	9.832370e-001	9.791191e-001	9.747727e-001	9.703305e-001	9.658499e-001	9.614328e-001	9.571999e-001	9.535653e-001	9.507503e-001	9.480219e-001	9.446784e-001	9.453577e-001	9.584226e-001	9.682662e-001	9.157678e-001	7.676344e-001	6.783684e-001	6.740855e-001	6.832390e-001	6.870720e-001	6.877306e-001	6.892219e-001	6.918198e-001	6.950905e-001	6.989997e-001	7.036532e-001	7.090654e-001	7.151264e-001	7.218028e-001	7.292552e-001	7.377695e-001	7.475977e-001	7.586261e-001	7.704411e-001	7.826910e-001	7.953922e-001	8.088350e-001	8.232833e-001	8.385962e-001	8.546648e-001	8.714984e-001	8.890569e-001	9.074159e-001	9.265978e-001	9.467054e-001	9.679152e-001	9.903394e-001	1.014194e+000	1.039781e+000	1.067231e+000	1.096890e+000	1.129082e+000	1.163686e+000	1.200630e+000	1.239083e+000	1.277742e+000	1.311448e+000	1.342185e+000	1.352538e+000	1.348611e+000	1.347331e+000	1.328918e+000	1.288776e+000	1.250033e+000	1.207181e+000	1.164437e+000	1.122869e+000	1.083024e+000	1.045033e+000	1.009245e+000	9.756290e-001	9.440208e-001	9.145393e-001	8.870345e-001	8.614019e-001	8.375897e-001	8.153924e-001	7.946140e-001	7.752639e-001	7.573152e-001	7.408435e-001	7.258444e-001	7.120903e-001	6.991466e-001	6.867772e-001	6.751380e-001	6.647389e-001	6.555601e-001	6.472187e-001	6.392331e-001	6.315981e-001	6.245119e-001	6.182464e-001	6.127878e-001	6.080631e-001	6.038860e-001	6.001083e-001	5.966680e-001	5.934219e-001	5.903616e-001	5.874519e-001	5.848375e-001	5.826859e-001	5.809428e-001	5.793742e-001	5.778749e-001	5.764018e-001	5.751038e-001	5.739896e-001	5.732411e-001	5.728053e-001	5.726467e-001	5.726000e-001	5.722414e-001	5.721354e-001	5.722184e-001	5.741475e-001	5.720174e-001	5.645703e-001	6.081430e-001	7.951875e-001	9.808925e-001	9.957963e-001	9.885109e-001	9.886194e-001	9.927794e-001	9.965584e-001	1.001009e+000	1.006528e+000	1.012801e+000	1.019498e+000	1.026410e+000	1.033311e+000	1.039924e+000	1.045987e+000	1.051235e+000	1.055337e+000	1.057994e+000	1.058820e+000	1.057447e+000	1.053566e+000	1.047094e+000	1.038444e+000	1.028919e+000	1.020754e+000	1.016725e+000	1.019346e+000	1.029337e+000	1.044888e+000	1.062451e+000	1.078976e+000	1.092858e+000	1.103642e+000	1.111921e+000	1.118592e+000	1.125426e+000	1.133236e+000	1.144026e+000	1.156231e+000	1.152431e+000	9.980497e-001	9.995272e-001	9.997255e-001	9.995614e-001	9.994750e-001	9.993597e-001	9.992223e-001	9.990507e-001	9.988631e-001	9.987467e-001	9.987037e-001	9.988212e-001	9.990543e-001	9.994509e-001	9.997721e-001	1.000023e+000	1.000160e+000	1.000241e+000	1.000287e+000	1.000307e+000	1.000316e+000	1.000318e+000	1.000319e+000	1.000326e+000	1.000332e+000	1.000344e+000	1.000366e+000	1.000395e+000	1.000437e+000	1.000498e+000	1.000567e+000	1.000677e+000	1.000781e+000	1.000955e+000	1.001110e+000	1.001294e+000	1.001478e+000	1.001537e+000	1.001539e+000	1.001409e+000	1.001268e+000	1.001073e+000	1.000891e+000	1.000714e+000	1.000561e+000	1.000360e+000	1.000191e+000	1.000270e+000	9.989092e-001	9.970613e-001	9.346312e-001	9.885203e-001	5.820418e-001	1.010283e+000	6.748982e-001	1.160695e+000	1.150312e+000	9.894954e-001	9.937687e-001	1.312468e+000	9.952568e-001	5.739467e-001	1.123030e+000	1.118276e+000	5.759634e-001	9.963408e-001	1.345875e+000	1.115613e+000	1.114704e+000	1.327381e+000	9.851808e-001	9.614241e-001	9.782364e-001	5.943263e-001	9.414003e-001	6.244134e-001	9.262131e-001	1.127789e+000	9.310994e-001	8.968679e-001	9.658086e-001	1.345990e+000	1.063708e+000	1.016588e+000	1.104222e+000	9.724907e-001	9.323825e-001	1.096510e+000	1.114662e+000	1.111787e+000	7.774250e-001	9.450418e-001	9.929997e-001	1.138745e+000	9.733273e-001	9.706550e-001	9.569041e-001	9.456379e-001	9.514203e-001	9.483088e-001	8.164545e-001	1.048026e+000	6.944455e-001	9.761478e-001	8.537711e-001	6.936130e-001	6.907436e-001	1.022585e+000	7.000507e-001	1.041425e+000	7.900122e-001	7.445729e-001	8.792246e-001	8.461393e-001	9.648651e-001	7.653960e-001	9.774910e-001	9.251047e-001	1.075182e+000	1.129938e+000	1.202405e+000	1.053735e+000	9.906418e-001	1.082306e+000	1.114172e+000	1.281397e+000	9.514865e-001	7.148339e-001	9.607200e-001	9.963029e-001	9.845868e-001	8.308109e-001	7.282288e-001	9.691155e-001	9.914344e-001	9.548680e-001	1.237384e+000	1.135188e+000	6.832713e-001	7.543519e-001	1.192216e+000	7.212121e-001	8.623221e-001	6.964632e-001	7.091361e-001	9.514878e-001	9.954460e-001	1.338538e+000	1.303088e+000	5.745121e-001	1.347571e+000	9.864724e-001	8.736724e-001	9.264303e-001	7.364052e-001	5.839039e-001	1.127400e+000	5.747351e-001	5.771759e-001	1.058453e+000	1.033896e+000	1.056027e+000	5.760370e-001	5.802750e-001	5.883550e-001	1.043442e+000	1.053475e+000	8.063413e-001	1.072432e+000	1.027713e+000	1.030559e+000	7.684897e-001	8.497864e-001	6.091710e-001	6.187055e-001	6.731195e-001	6.012751e-001	5.786559e-001	5.859826e-001	6.956456e-001	7.221062e-001	5.691372e-001	6.546288e-001	6.382037e-001	6.567257e-001	5.742112e-001	9.990488e-001	9.912723e-001	1.018732e+000	1.007365e+000	1.042776e+000	1.031130e+000	1.055711e+000	1.051774e+000	1.026923e+000	1.049292e+000	1.044837e+000	1.047737e+000	1.054629e+000	1.024898e+000	1.037170e+000	1.002698e+000	1.012837e+000	9.952676e-001	9.954702e-001	5.755197e-001	9.508917e-001	5.744271e-001	5.749546e-001	6.461928e-001	6.309480e-001	6.838001e-001	6.635656e-001	8.991561e-001	7.085699e-001	1.089972e+000	9.555538e-001	7.359329e-001	1.205978e+000	1.106196e+000	9.704709e-001	6.922396e-001	9.539000e-001	1.245190e+000	1.019191e+000	1.166622e+000	7.867079e-001	8.273476e-001	6.136541e-001	7.517611e-001	1.085174e+000	1.095977e+000	6.050808e-001	1.104939e+000	1.112544e+000	5.977500e-001	5.911572e-001	1.036711e+000	1.166091e+000	1.136893e+000	1.146357e+000	9.814529e-001	9.986781e-001	1.119763e+000	5.751981e-001	1.271890e+000	1.168096e+000	9.153134e-001	8.029430e-001	7.042258e-001	8.399840e-001	1.293952e+000	1.321233e+000	7.110046e-001	9.937398e-001	9.885317e-001	1.196047e+000	5.768159e-001	9.919109e-001	9.867168e-001	1.116223e+000	6.995752e-001	9.450830e-001	9.605289e-001	8.875418e-001	1.309682e+000	7.444236e-001	1.134955e+000	1.094294e+000	7.985068e-001	9.948648e-001	9.866546e-001	9.574633e-001	9.050570e-001	6.851710e-001	9.524527e-001	9.817802e-001	1.161305e+000	1.057513e+000	8.337560e-001	1.039840e+000	7.645740e-001	1.006471e+000	6.948620e-001	1.051302e+000	1.097777e+000	6.031330e-001	5.781425e-001	1.035695e+000	1.053112e+000	1.105617e+000	1.039321e+000	1.078536e+000	6.395218e-001	6.072253e-001	6.469918e-001	7.813811e-001	9.895588e-001	7.533115e-001	1.125818e+000	7.196840e-001	9.106451e-001	1.056399e+000	1.112947e+000	1.053625e+000	7.856952e-001	1.180235e+000	1.127933e+000	1.120138e+000	1.196765e+000	1.265248e+000	1.227237e+000	1.341691e+000	1.341677e+000	1.106100e+000	1.190876e+000	9.423538e-001	1.140879e+000	1.125442e+000	5.878671e-001	9.603912e-001	1.113592e+000	9.382884e-001	5.779284e-001	1.120054e+000	1.330931e+000	9.737059e-001	5.904071e-001	9.524365e-001	6.211322e-001	9.398090e-001	9.422108e-001	9.233019e-001	9.685289e-001	1.010216e+000	1.069003e+000	1.052943e+000	1.083345e+000	1.102001e+000	1.111726e+000	8.253410e-001	9.930769e-001	9.905140e-001	1.132453e+000	9.485077e-001	9.496485e-001	9.522923e-001	1.078897e+000	7.759021e-001	9.383537e-001	6.973227e-001	1.005266e+000	1.031630e+000	1.051551e+000	8.117881e-001	8.707281e-001	9.641735e-001	9.760606e-001	1.106912e+000	1.109836e+000	9.951853e-001	9.946735e-001	8.547520e-001	8.396203e-001	9.681560e-001	9.721012e-001	9.833175e-001	9.623770e-001	1.164915e+000	6.936765e-001	6.785655e-001	7.738226e-001	7.630950e-001	7.362632e-001	7.288453e-001	7.064364e-001	7.024752e-001	7.221153e-001	1.338102e+000	1.258105e+000	9.369146e-001	1.088774e+000	5.774385e-001	5.790166e-001	5.802780e-001	5.817008e-001	1.067508e+000	1.046558e+000	1.046763e+000	5.835166e-001	5.855257e-001	5.932172e-001	1.050349e+000	1.035658e+000	8.621319e-001	8.857264e-001	6.328051e-001	6.266281e-001	7.067039e-001	7.339845e-001	7.489003e-001	1.018384e+000	1.001953e+000	9.986519e-001	1.013278e+000	1.034740e+000	1.052704e+000	1.048325e+000	1.044443e+000	1.029352e+000	1.023814e+000	1.008468e+000	1.004612e+000	9.937256e-001	1.001629e+000	5.973118e-001	5.628721e-001	5.767807e-001	5.770251e-001	5.751444e-001	5.774627e-001	6.550465e-001	6.640301e-001	6.736598e-001	6.840289e-001	1.091217e+000	9.647694e-001	9.943397e-001	9.756649e-001	9.684574e-001	9.544500e-001	9.569878e-001	1.232077e+000	1.025321e+000	7.995401e-001	8.190893e-001	6.114574e-001	6.160764e-001	5.961666e-001	5.994499e-001	1.038344e+000	1.042455e+000	9.798214e-001	9.834267e-001	1.028399e+000	1.286769e+000	7.161879e-001	1.312535e+000	7.163833e-001	7.184113e-001	9.844549e-001	9.603731e-001	1.007174e+000	1.099492e+000	1.091956e+000	1.049420e+000	1.220073e+000	1.106941e+000	1.136477e+000	1.148004e+000	1.133474e+000	1.171987e+000	1.108159e+000	1.321095e+000	8.969720e-001	1.025505e+000	1.116510e+000	5.805520e-001	1.151354e+000	1.218092e+000	9.933076e-001	1.270923e+000	9.939873e-001	1.134542e+000	9.502160e-001	1.190084e+000	7.057709e-001	9.517163e-001	9.921074e-001	1.121472e+000	1.162200e+000	1.074607e+000	5.818783e-001	1.041889e+000	6.965097e-001	1.113050e+000	5.830603e-001	6.353514e-001	6.136032e-001	7.196963e-001	8.755357e-001	1.143283e+000	1.290155e+000	1.274081e+000	1.092831e+000	1.301946e+000	1.092614e+000	9.142444e-001	1.336571e+000	8.075989e-001	9.533110e-001	1.082612e+000	1.156728e+000	1.037236e+000	1.018055e+000	9.763318e-001	1.083679e+000	1.044339e+000	1.051442e+000	1.050291e+000	6.184279e-001	6.291566e-001	6.568448e-001	7.957626e-001	9.878508e-001	9.901271e-001	7.627630e-001	1.124743e+000	7.323156e-001	1.065440e+000	1.119781e+000	1.188758e+000	1.249960e+000	1.245179e+000	1.325043e+000	1.057847e+000	1.165679e+000	1.156978e+000	1.098942e+000	1.112803e+000	5.806130e-001	9.677102e-001	5.953331e-001	9.617633e-001	9.559680e-001	9.528806e-001	9.604555e-001	9.509137e-001	9.322435e-001	9.729116e-001	9.890681e-001	1.072767e+000	1.083980e+000	1.109733e+000	9.911025e-001	9.881559e-001	1.126970e+000	9.512961e-001	9.534992e-001	8.724505e-001	9.701757e-001	1.034536e+000	1.043060e+000	1.058988e+000	8.352946e-001	8.213151e-001	9.637894e-001	9.675174e-001	1.103472e+000	1.106797e+000	9.938635e-001	9.928243e-001	8.804014e-001	8.643533e-001	8.493045e-001	9.711668e-001	9.749222e-001	1.012495e+000	9.911004e-001	9.704705e-001	7.014861e-001	6.934229e-001	6.818325e-001	7.949891e-001	7.835108e-001	7.727597e-001	7.534210e-001	7.449011e-001	7.134129e-001	7.088991e-001	7.370843e-001	9.483870e-001	5.840909e-001	5.856896e-001	1.056712e+000	5.874630e-001	5.897262e-001	5.922696e-001	5.985868e-001	1.048516e+000	8.985798e-001	9.229947e-001	6.418749e-001	6.492086e-001	7.463326e-001	7.623063e-001	7.788907e-001	1.004780e+000	1.050465e+000	1.051479e+000	1.048182e+000	1.045164e+000	1.041587e+000	1.032559e+000	1.027793e+000	1.022889e+000	1.013758e+000	1.009695e+000	1.006989e+000	1.000142e+000	9.964111e-001	1.009726e+000	5.801400e-001	5.805456e-001	5.812247e-001	5.661050e-001	5.794565e-001	5.808987e-001	6.652848e-001	6.742596e-001	6.845641e-001	6.956839e-001	7.076543e-001	9.746662e-001	1.002550e+000	9.797636e-001	9.741525e-001	9.680451e-001	9.553776e-001	9.573748e-001	1.031983e+000	1.061972e+000	8.137202e-001	8.331091e-001	8.537193e-001	6.236220e-001	6.021315e-001	6.056101e-001	6.093579e-001	1.041835e+000	1.043499e+000	1.045994e+000	9.784297e-001	9.819127e-001	9.849592e-001	7.301496e-001	7.239332e-001	1.293786e+000	9.068337e-001	1.113037e+000	1.079628e+000	9.632839e-001	1.303429e+000	1.140131e+000	1.022370e+000	1.037665e+000	1.061590e+000	1.100665e+000	5.898660e-001	1.272483e+000	1.122235e+000	1.207278e+000	1.052365e+000	1.107001e+000	1.256378e+000	6.342041e-001	1.234198e+000	1.150209e+000	1.169134e+000	9.829477e-001	8.185450e-001	1.108904e+000	8.013731e-001	9.238451e-001	9.576734e-001	7.275428e-001	1.087101e+000	5.853810e-001	1.048567e+000	1.046560e+000	1.017265e+000	7.478073e-001	6.536479e-001	1.112454e+000	9.110073e-001	9.615988e-001	1.126059e+000	1.094172e+000	1.127369e+000	1.096688e+000	1.132689e+000	9.919806e-001	1.231612e+000	9.925864e-001	9.931449e-001	1.157732e+000	1.116736e+000	1.182809e+000	1.034380e+000	5.875214e-001	6.331552e-001	1.282163e+000	1.151097e+000	8.576512e-001	1.048684e+000	6.276909e-001	6.397056e-001	6.460862e-001	9.885987e-001	9.902893e-001	1.071918e+000	1.179331e+000	1.207528e+000	1.254515e+000	1.307634e+000	1.084859e+000	1.091073e+000	1.108619e+000	5.858173e-001	9.654039e-001	9.623182e-001	9.637021e-001	9.697743e-001	9.594563e-001	9.413291e-001	9.794747e-001	9.923160e-001	1.007059e+000	1.074951e+000	1.083954e+000	9.894052e-001	9.865559e-001	1.121754e+000	9.520882e-001	9.533781e-001	9.395954e-001	9.694270e-001	1.051682e+000	1.064062e+000	8.464098e-001	8.316053e-001	9.667851e-001	1.101127e+000	1.104977e+000	9.922777e-001	9.912330e-001	8.904104e-001	8.748988e-001	8.606573e-001	9.702891e-001	9.737417e-001	1.040319e+000	1.019048e+000	9.980231e-001	9.781351e-001	7.123894e-001	7.052129e-001	6.953768e-001	7.041735e-001	8.067404e-001	7.952736e-001	7.844978e-001	7.739846e-001	7.645072e-001	7.166735e-001	7.220927e-001	7.554778e-001	5.912309e-001	1.064521e+000	1.057793e+000	5.934047e-001	5.955503e-001	5.985792e-001	6.016235e-001	6.055375e-001	9.346755e-001	9.595070e-001	6.609835e-001	6.696616e-001	7.613176e-001	7.763718e-001	7.935286e-001	8.112839e-001	1.048887e+000	1.049503e+000	1.049514e+000	1.047075e+000	1.044797e+000	1.041920e+000	1.037901e+000	1.030289e+000	1.025668e+000	1.021497e+000	1.013202e+000	1.009274e+000	1.006119e+000	1.004748e+000	1.003697e+000	1.011318e+000	1.009844e+000	5.869570e-001	5.851617e-001	5.855875e-001	5.681717e-001	5.793286e-001	5.852757e-001	6.779630e-001	6.876175e-001	6.971803e-001	7.086917e-001	7.207215e-001	7.339982e-001	9.844404e-001	1.009761e+000	9.790239e-001	9.740865e-001	9.695047e-001	9.557608e-001	9.575508e-001	9.602342e-001	1.037285e+000	1.065468e+000	1.093185e+000	8.290808e-001	8.476492e-001	8.678448e-001	8.889800e-001	6.093258e-001	6.137885e-001	6.178905e-001	6.223112e-001	1.047812e+000	1.046104e+000	1.046738e+000	9.771872e-001	9.803203e-001	9.834738e-001	9.860204e-001	7.475989e-001	7.401731e-001	7.337927e-001	1.153138e+000	1.109301e+000	1.090074e+000	1.146044e+000	1.175775e+000	9.920054e-001	9.172402e-001	1.197501e+000	1.076704e+000	1.239320e+000	1.086288e+000	8.322994e-001	7.791817e-001	1.145940e+000	1.219877e+000	1.280995e+000	1.318782e+000	1.318605e+000	1.311273e+000	1.256028e+000	1.123703e+000	6.445543e-001	1.095220e+000	1.112164e+000	1.046325e+000	9.844290e-001	8.834869e-001	1.101285e+000	1.048242e+000	1.049534e+000	5.916923e-001	5.940466e-001	6.600803e-001	1.012280e+000	5.977919e-001	9.640642e-001	6.363761e-001	1.095579e+000	9.338382e-001	1.137989e+000	1.083171e+000	1.313474e+000	1.163231e+000	1.153772e+000	1.033963e+000	1.065683e+000	1.274216e+000	1.119714e+000	1.218875e+000	1.054585e+000	1.240194e+000	1.148308e+000	1.156464e+000	1.130896e+000	7.297619e-001	7.377091e-001	1.089442e+000	5.908750e-001	1.051441e+000	1.107884e+000	9.908564e-001	1.262233e+000	6.493567e-001	6.588240e-001	6.643615e-001	9.877414e-001	1.171080e+000	1.195981e+000	1.287344e+000	1.109227e+000	9.714729e-001	9.701603e-001	9.742094e-001	9.773640e-001	9.506933e-001	9.686619e-001	9.870538e-001	9.958217e-001	1.009091e+000	1.022550e+000	1.076582e+000	1.083950e+000	9.890414e-001	1.116548e+000	9.573903e-001	9.548097e-001	9.599235e-001	9.646532e-001	1.058419e+000	1.067838e+000	8.572569e-001	8.414800e-001	1.099745e+000	1.103859e+000	9.911021e-001	9.008057e-001	8.847940e-001	8.742095e-001	9.707784e-001	1.045545e+000	1.025205e+000	1.005065e+000	9.868183e-001	7.245807e-001	7.167039e-001	7.122571e-001	7.068174e-001	7.537641e-001	8.180171e-001	8.091023e-001	7.952268e-001	7.871521e-001	7.747664e-001	1.070269e+000	1.064280e+000	1.058948e+000	5.991877e-001	6.028840e-001	6.046450e-001	6.093019e-001	6.118827e-001	9.464331e-001	9.703369e-001	6.750844e-001	6.814670e-001	7.895501e-001	8.081657e-001	8.269714e-001	1.048026e+000	1.047909e+000	1.046682e+000	1.045719e+000	1.043194e+000	1.041275e+000	1.037469e+000	1.032449e+000	1.026920e+000	1.020758e+000	1.004652e+000	1.017555e+000	9.808928e-001	5.873359e-001	5.834545e-001	6.935070e-001	7.004627e-001	7.137287e-001	7.214879e-001	7.364957e-001	7.495572e-001	7.639513e-001	9.941779e-001	1.017576e+000	9.795558e-001	9.754245e-001	9.735252e-001	9.543399e-001	9.581762e-001	1.042024e+000	1.068656e+000	1.094020e+000	8.453685e-001	8.635545e-001	8.825170e-001	9.037667e-001	9.249739e-001	6.174979e-001	6.207571e-001	6.272482e-001	6.325310e-001	1.048544e+000	1.048194e+000	9.772357e-001	9.830355e-001	7.679104e-001	7.572494e-001	7.516889e-001	7.426882e-001	1.145559e+000	1.131719e+000	1.187833e+000	1.289906e+000	1.162297e+000	1.094274e+000	1.091150e+000	1.244117e+000	1.059484e+000	1.126066e+000	1.103209e+000	1.269431e+000	1.087592e+000	1.168243e+000	6.507886e-001	1.146027e+000	1.163064e+000	1.224767e+000	1.148150e+000	1.089452e+000	9.611529e-001	1.085582e+000	7.417968e-001	1.053259e+000	1.037738e+000	9.799365e-001	9.272881e-001	8.375893e-001	1.239952e+000	9.409405e-001	9.613573e-001	9.448248e-001	8.148449e-001	1.074251e+000	1.047502e+000	1.261618e+000	1.140345e+000	1.084074e+000	1.141341e+000	1.079795e+000	1.315864e+000	1.255670e+000	1.107473e+000	9.910839e-001	6.035129e-001	6.075055e-001	1.096452e+000	1.149929e+000	1.111715e+000	1.293923e+000	1.157232e+000	1.069142e+000	1.224474e+000	1.206707e+000	5.960173e-001	1.107925e+000	1.055936e+000	1.052975e+000	5.996311e-001	6.652741e-001	6.821499e-001	9.907757e-001	1.185064e+000	1.206015e+000	1.128825e+000	9.800352e-001	9.887855e-001	9.774936e-001	1.005044e+000	1.023232e+000	1.077839e+000	1.111889e+000	9.645762e-001	1.063202e+000	1.070672e+000	8.608227e-001	1.098745e+000	9.900046e-001	9.876921e-001	9.046140e-001	8.847731e-001	9.678851e-001	1.050281e+000	1.029935e+000	1.010988e+000	9.975034e-001	7.278026e-001	7.321527e-001	8.176967e-001	8.142703e-001	7.925751e-001	1.068914e+000	1.063977e+000	6.141697e-001	6.220588e-001	9.795817e-001	7.011251e-001	8.416124e-001	1.022271e+000	1.045608e+000	1.042471e+000	1.037939e+000	1.032514e+000	1.027389e+000	1.015522e+000	1.005227e+000	1.008770e+000	1.024250e+000	8.526885e-001	6.116333e-001	5.811639e-001	5.953958e-001	7.221901e-001	7.446350e-001	7.668160e-001	7.773541e-001	7.954919e-001	1.003413e+000	1.025262e+000	9.842090e-001	9.803548e-001	9.791031e-001	9.557118e-001	9.552845e-001	1.046767e+000	1.070700e+000	1.094591e+000	1.117210e+000	8.617584e-001	8.798092e-001	8.977440e-001	9.174926e-001	9.410149e-001	9.569673e-001	6.317009e-001	6.421022e-001	1.050645e+000	1.049124e+000	9.741660e-001	9.849078e-001	9.886384e-001	7.735152e-001	7.570945e-001	1.101197e+000	1.146908e+000	1.142381e+000	1.117393e+000	1.027028e+000	1.092184e+000	1.143517e+000	1.122193e+000	1.195234e+000	1.143541e+000	1.131305e+000	1.115885e+000	1.174982e+000	1.243034e+000	1.251900e+000	1.067497e+000	9.903965e-001	6.611853e-001	1.107687e+000	1.020887e+000	1.106747e+000	9.793209e-001	1.155685e+000	1.178649e+000	8.870819e-001	1.058890e+000	9.820232e-001	9.648336e-001	1.089257e+000	1.093927e+000	1.088656e+000	1.072546e+000	1.141368e+000	1.081985e+000	1.086882e+000	1.059358e+000	6.917686e-001	6.011862e-001	9.890432e-001	9.853975e-001	1.127963e+000	1.132521e+000	1.297825e+000	1.084246e+000	1.063143e+000	1.157568e+000	1.098323e+000	1.227324e+000	1.160978e+000	9.577079e-001	1.238525e+000	9.732914e-001	9.540500e-001	1.077026e+000	1.271663e+000	1.078875e+000	1.102614e+000	9.904101e-001	1.274359e+000	1.157193e+000	1.003906e+000	1.224880e+000	1.210675e+000	6.