# vtk DataFile Version 3.0
vtk output
ASCII
DATASET UNSTRUCTURED_GRID
POINTS 5233 float
9.997500e-001	-3.633188e-005	0.0	9.990000e-001	-1.454378e-004	0.0	9.977600e-001	-3.271288e-004	0.0	9.960200e-001	-5.878841e-004	0.0	9.937800e-001	-9.397190e-004	0.0	9.910500e-001	-1.401737e-003	0.0	9.878400e-001	-1.999337e-003	0.0	9.841300e-001	-2.763449e-003	0.0	9.799500e-001	-3.703856e-003	0.0	9.752800e-001	-4.819265e-003	0.0	9.701500e-001	-6.071392e-003	0.0	9.645400e-001	-7.415225e-003	0.0	9.584700e-001	-8.793218e-003	0.0	9.519400e-001	-1.016785e-002	0.0	9.449600e-001	-1.152643e-002	0.0	9.375400e-001	-1.288366e-002	0.0	9.296900e-001	-1.427128e-002	0.0	9.214000e-001	-1.572632e-002	0.0	9.127000e-001	-1.726745e-002	0.0	9.035800e-001	-1.890182e-002	0.0	8.940600e-001	-2.061223e-002	0.0	8.841500e-001	-2.236864e-002	0.0	8.738500e-001	-2.413486e-002	0.0	8.631800e-001	-2.586996e-002	0.0	8.521600e-001	-2.753744e-002	0.0	8.407700e-001	-2.911400e-002	0.0	8.290500e-001	-3.057665e-002	0.0	8.170100e-001	-3.191630e-002	0.0	8.046400e-001	-3.313409e-002	0.0	7.919700e-001	-3.423396e-002	0.0	7.790100e-001	-3.522751e-002	0.0	7.657800e-001	-3.612927e-002	0.0	7.522800e-001	-3.695716e-002	0.0	7.385200e-001	-3.772881e-002	0.0	7.245300e-001	-3.846032e-002	0.0	7.103200e-001	-3.916739e-002	0.0	6.958900e-001	-3.986407e-002	0.0	6.812700e-001	-4.056039e-002	0.0	6.664700e-001	-4.126470e-002	0.0	6.515000e-001	-4.198271e-002	0.0	6.363800e-001	-4.271712e-002	0.0	6.211300e-001	-4.346848e-002	0.0	6.057600e-001	-4.423596e-002	0.0	5.902800e-001	-4.501733e-002	0.0	5.747100e-001	-4.580885e-002	0.0	5.590600e-001	-4.660669e-002	0.0	5.433600e-001	-4.740568e-002	0.0	5.276100e-001	-4.820223e-002	0.0	5.118400e-001	-4.899143e-002	0.0	4.960500e-001	-4.977020e-002	0.0	4.802700e-001	-5.053435e-002	0.0	4.645100e-001	-5.128101e-002	0.0	4.487800e-001	-5.200752e-002	0.0	4.331100e-001	-5.271043e-002	0.0	4.175000e-001	-5.338756e-002	0.0	4.019700e-001	-5.403556e-002	0.0	3.865400e-001	-5.465074e-002	0.0	3.712300e-001	-5.522883e-002	0.0	3.560400e-001	-5.576565e-002	0.0	3.409900e-001	-5.625549e-002	0.0	3.261100e-001	-5.669162e-002	0.0	3.114000e-001	-5.706752e-002	0.0	2.968700e-001	-5.737557e-002	0.0	2.825500e-001	-5.760720e-002	0.0	2.684500e-001	-5.775395e-002	0.0	2.545700e-001	-5.780704e-002	0.0	2.409400e-001	-5.775751e-002	0.0	2.275700e-001	-5.759678e-002	0.0	2.144700e-001	-5.731662e-002	0.0	2.016600e-001	-5.690972e-002	0.0	1.891400e-001	-5.636895e-002	0.0	1.769300e-001	-5.568896e-002	0.0	1.650400e-001	-5.486522e-002	0.0	1.534900e-001	-5.389545e-002	0.0	1.422900e-001	-5.277835e-002	0.0	1.314400e-001	-5.151297e-002	0.0	1.209500e-001	-5.010070e-002	0.0	1.108500e-001	-4.854784e-002	0.0	1.011300e-001	-4.685665e-002	0.0	9.181000e-002	-4.503561e-002	0.0	8.290000e-002	-4.309347e-002	0.0	7.440000e-002	-4.103808e-002	0.0	6.633000e-002	-3.888349e-002	0.0	5.869000e-002	-3.664009e-002	0.0	5.149000e-002	-3.432193e-002	0.0	4.474000e-002	-3.194431e-002	0.0	3.844000e-002	-2.951962e-002	0.0	3.260000e-002	-2.706422e-002	0.0	2.723000e-002	-2.459522e-002	0.0	2.232000e-002	-2.211987e-002	0.0	1.790000e-002	-1.966506e-002	0.0	1.395000e-002	-1.723019e-002	0.0	1.049000e-002	-1.483557e-002	0.0	7.520000e-003	-1.248790e-002	0.0	5.040000e-003	-1.018937e-002	0.0	3.050000e-003	-7.934959e-003	0.0	1.560000e-003	-5.723850e-003	0.0	5.600000e-004	-3.507461e-003	0.0	6.000000e-005	-1.214808e-003	0.0	0.000000e+000	0.000000e+000	0.0	6.000000e-005	1.402356e-003	0.0	5.600000e-004	4.310743e-003	0.0	1.560000e-003	7.206170e-003	0.0	3.050000e-003	1.006988e-002	0.0	5.040000e-003	1.291682e-002	0.0	7.520000e-003	1.572460e-002	0.0	1.049000e-002	1.848943e-002	0.0	1.395000e-002	2.120629e-002	0.0	1.790000e-002	2.386988e-002	0.0	2.232000e-002	2.646394e-002	0.0	2.723000e-002	2.899690e-002	0.0	3.260000e-002	3.145028e-002	0.0	3.844000e-002	3.382694e-002	0.0	4.474000e-002	3.612047e-002	0.0	5.149000e-002	3.832574e-002	0.0	5.869000e-002	4.044138e-002	0.0	6.633000e-002	4.246317e-002	0.0	7.440000e-002	4.438772e-002	0.0	8.290000e-002	4.621436e-002	0.0	9.181000e-002	4.793850e-002	0.0	1.011300e-001	4.956021e-002	0.0	1.108500e-001	5.107779e-002	0.0	1.209500e-001	5.248866e-002	0.0	1.314400e-001	5.379473e-002	0.0	1.422900e-001	5.499290e-002	0.0	1.534900e-001	5.608320e-002	0.0	1.650400e-001	5.706659e-002	0.0	1.769300e-001	5.794298e-002	0.0	1.891400e-001	5.871181e-002	0.0	2.016600e-001	5.937339e-002	0.0	2.144700e-001	5.992762e-002	0.0	2.275700e-001	6.037528e-002	0.0	2.409400e-001	6.071628e-002	0.0	2.545700e-001	6.095090e-002	0.0	2.684500e-001	6.107935e-002	0.0	2.825500e-001	6.110178e-002	0.0	2.968700e-001	6.101867e-002	0.0	3.114000e-001	6.083039e-002	0.0	3.261100e-001	6.053791e-002	0.0	3.409900e-001	6.014236e-002	0.0	3.560400e-001	5.964481e-002	0.0	3.712300e-001	5.904781e-002	0.0	3.865400e-001	5.835449e-002	0.0	4.019700e-001	5.756780e-002	0.0	4.175000e-001	5.669246e-002	0.0	4.331100e-001	5.573434e-002	0.0	4.487800e-001	5.470045e-002	0.0	4.645100e-001	5.359757e-002	0.0	4.802700e-001	5.243565e-002	0.0	4.960500e-001	5.122431e-002	0.0	5.118400e-001	4.997407e-002	0.0	5.276100e-001	4.869784e-002	0.0	5.433600e-001	4.740669e-002	0.0	5.590600e-001	4.611435e-002	0.0	5.747100e-001	4.483202e-002	0.0	5.902800e-001	4.357287e-002	0.0	6.057600e-001	4.234752e-002	0.0	6.211300e-001	4.116603e-002	0.0	6.363800e-001	4.003587e-002	0.0	6.515000e-001	3.896239e-002	0.0	6.664700e-001	3.794903e-002	0.0	6.812700e-001	3.699616e-002	0.0	6.958900e-001	3.610022e-002	0.0	7.103200e-001	3.525412e-002	0.0	7.245300e-001	3.444817e-002	0.0	7.385200e-001	3.366723e-002	0.0	7.522800e-001	3.289315e-002	0.0	7.657800e-001	3.210582e-002	0.0	7.790100e-001	3.128177e-002	0.0	7.919700e-001	3.039591e-002	0.0	8.046400e-001	2.942522e-002	0.0	8.170100e-001	2.834909e-002	0.0	8.290500e-001	2.715459e-002	0.0	8.407700e-001	2.583325e-002	0.0	8.521600e-001	2.438855e-002	0.0	8.631800e-001	2.283997e-002	0.0	8.738500e-001	2.121051e-002	0.0	8.841500e-001	1.953811e-002	0.0	8.940600e-001	1.786679e-002	0.0	9.035800e-001	1.623726e-002	0.0	9.127000e-001	1.468523e-002	0.0	9.214000e-001	1.323529e-002	0.0	9.296900e-001	1.189017e-002	0.0	9.375400e-001	1.064230e-002	0.0	9.449600e-001	9.465795e-003	0.0	9.519400e-001	8.335255e-003	0.0	9.584700e-001	7.233141e-003	0.0	9.645400e-001	6.157646e-003	0.0	9.701500e-001	5.122288e-003	0.0	9.752800e-001	4.155606e-003	0.0	9.799500e-001	3.279972e-003	0.0	9.841300e-001	2.519135e-003	0.0	9.878400e-001	1.875072e-003	0.0	9.910500e-001	1.347175e-003	0.0	9.937800e-001	9.200054e-004	0.0	9.960200e-001	5.824334e-004	0.0	9.977600e-001	3.261200e-004	0.0	9.990000e-001	1.453459e-004	0.0	9.997500e-001	3.633043e-005	0.0	1.000000e+000	0.000000e+000	0.0	1.984229e+001	2.506660e+000	0.0	1.937166e+001	4.973800e+000	0.0	1.859553e+001	7.362490e+000	0.0	1.752613e+001	9.635070e+000	0.0	1.618034e+001	1.175571e+001	0.0	1.457937e+001	1.369094e+001	0.0	1.274848e+001	1.541027e+001	0.0	1.071654e+001	1.688656e+001	0.0	8.515590e+000	1.809654e+001	0.0	6.180340e+000	1.902113e+001	0.0	3.747630e+000	1.964575e+001	0.0	1.255810e+000	1.996053e+001	0.0	-1.255810e+000	1.996053e+001	0.0	-3.747630e+000	1.964574e+001	0.0	-6.180340e+000	1.902113e+001	0.0	-8.515590e+000	1.809654e+001	0.0	-1.071654e+001	1.688656e+001	0.0	-1.274848e+001	1.541026e+001	0.0	-1.457937e+001	1.369094e+001	0.0	-1.618034e+001	1.175570e+001	0.0	-1.752613e+001	9.635070e+000	0.0	-1.859553e+001	7.362490e+000	0.0	-1.937166e+001	4.973800e+000	0.0	-1.984229e+001	2.506660e+000	0.0	-2.000000e+001	0.000000e+000	0.0	-1.984229e+001	-2.506670e+000	0.0	-1.937166e+001	-4.973800e+000	0.0	-1.859553e+001	-7.362490e+000	0.0	-1.752613e+001	-9.635080e+000	0.0	-1.618034e+001	-1.175571e+001	0.0	-1.457937e+001	-1.369094e+001	0.0	-1.274848e+001	-1.541027e+001	0.0	-1.071653e+001	-1.688656e+001	0.0	-8.515580e+000	-1.809654e+001	0.0	-6.180340e+000	-1.902113e+001	0.0	-3.747620e+000	-1.964575e+001	0.0	-1.255810e+000	-1.996053e+001	0.0	1.255810e+000	-1.996053e+001	0.0	3.747630e+000	-1.964574e+001	0.0	6.180340e+000	-1.902113e+001	0.0	8.515590e+000	-1.809654e+001	0.0	1.071654e+001	-1.688656e+001	0.0	1.274848e+001	-1.541026e+001	0.0	1.457937e+001	-1.369094e+001	0.0	1.618034e+001	-1.175570e+001	0.0	1.752614e+001	-9.635070e+000	0.0	1.859553e+001	-7.362490e+000	0.0	1.937166e+001	-4.973790e+000	0.0	1.984229e+001	-2.506660e+000	0.0	2.000000e+001	0.000000e+000	0.0	6.065431e-002	-4.467456e-002	0.0	6.599192e-001	-5.547217e-002	0.0	4.260567e-001	7.051593e-002	0.0	6.896563e-001	5.014700e-002	0.0	3.793357e-001	-6.911319e-002	0.0	9.994628e-001	-7.410061e-004	0.0	9.985426e-001	-1.348281e-003	0.0	7.736070e-001	-4.760509e-002	0.0	6.895667e-001	-5.369644e-002	0.0	-1.435412e-003	6.724515e-003	0.0	7.465202e-001	-4.985722e-002	0.0	5.835902e-001	5.867544e-002	0.0	9.927873e-001	-3.737202e-003	0.0	9.899017e-001	-4.724503e-003	0.0	5.991134e-001	5.736510e-002	0.0	7.184745e-001	-5.184895e-002	0.0	-1.526921e-003	8.930536e-004	0.0	9.865325e-001	-5.853652e-003	0.0	9.826866e-001	-7.125865e-003	0.0	-1.301012e-003	-5.559306e-003	0.0	6.448568e-001	-5.635040e-002	0.0	8.244169e-001	-4.192800e-002	0.0	7.996053e-001	-4.499814e-002	0.0	3.488984e-001	7.365033e-002	0.0	8.478959e-001	-3.840259e-002	0.0	2.474988e-001	7.331413e-002	0.0	8.699731e-001	-3.449265e-002	0.0	9.833798e-003	2.295956e-002	0.0	8.905371e-001	-3.038806e-002	0.0	7.692304e-002	-4.971947e-002	0.0	9.095180e-001	-2.632440e-002	0.0	-1.855385e-003	-2.735521e-003	0.0	9.424502e-001	-1.882024e-002	0.0	9.268455e-001	-2.246772e-002	0.0	1.798829e-002	-2.508304e-002	0.0	4.259043e-001	-6.750685e-002	0.0	8.591193e-001	-3.648374e-002	0.0	9.562825e-001	-1.526580e-002	0.0	9.783567e-001	-8.563094e-003	0.0	9.682712e-001	-1.177548e-002	0.0	1.582828e-001	-6.481096e-002	0.0	9.002319e-001	-2.833768e-002	0.0	7.601939e-001	-4.877011e-002	0.0	9.971175e-001	-2.104643e-003	0.0	5.988886e-001	-5.897218e-002	0.0	4.415866e-001	-6.687880e-002	0.0	5.362983e-001	-6.238159e-002	0.0	4.731125e-001	-6.550530e-002	0.0	5.047193e-001	-6.399652e-002	0.0	4.889053e-001	-6.476543e-002	0.0	1.248993e-001	-6.022999e-002	0.0	2.784223e-002	-3.084342e-002	0.0	3.947669e-001	-6.862841e-002	0.0	4.615723e-002	-3.930
[...]
POINT_DATA 5233

SCALARS Density float 1
LOOKUP_TABLE default
1.198839e+000	1.179444e+000	1.169266e+000	1.162459e+000	1.157430e+000	1.152681e+000	1.146115e+000	1.136453e+000	1.122797e+000	1.105425e+000	1.085607e+000	1.065712e+000	1.048950e+000	1.037418e+000	1.031031e+000	1.027836e+000	1.025229e+000	1.020969e+000	1.013730e+000	1.003134e+000	9.895366e-001	9.737359e-001	9.566624e-001	9.394087e-001	9.232072e-001	9.093903e-001	8.992190e-001	8.935192e-001	8.922435e-001	8.946788e-001	8.997693e-001	9.063746e-001	9.136152e-001	9.207582e-001	9.273632e-001	9.331343e-001	9.379347e-001	9.417362e-001	9.445166e-001	9.463592e-001	9.473143e-001	9.474990e-001	9.469998e-001	9.459394e-001	9.444173e-001	9.425441e-001	9.404148e-001	9.381168e-001	9.356975e-001	9.331659e-001	9.305513e-001	9.280360e-001	9.259020e-001	9.240401e-001	9.215383e-001	9.181385e-001	9.173547e-001	9.250354e-001	9.359806e-001	9.211257e-001	8.419102e-001	7.466597e-001	7.122314e-001	7.168874e-001	7.237344e-001	7.269209e-001	7.290292e-001	7.322968e-001	7.369132e-001	7.425854e-001	7.495225e-001	7.580633e-001	7.682586e-001	7.797513e-001	7.921536e-001	8.053669e-001	8.196046e-001	8.351061e-001	8.517376e-001	8.693540e-001	8.878973e-001	9.072375e-001	9.273380e-001	9.481081e-001	9.695097e-001	9.915379e-001	1.014117e+000	1.037264e+000	1.061071e+000	1.085499e+000	1.110738e+000	1.137088e+000	1.164694e+000	1.194211e+000	1.226151e+000	1.260752e+000	1.295913e+000	1.335582e+000	1.350978e+000	1.348704e+000	1.347528e+000	1.324067e+000	1.270724e+000	1.218198e+000	1.162374e+000	1.108780e+000	1.059786e+000	1.016006e+000	9.771120e-001	9.429002e-001	9.128093e-001	8.860805e-001	8.623371e-001	8.410874e-001	8.220317e-001	8.049722e-001	7.895158e-001	7.752844e-001	7.621288e-001	7.499556e-001	7.388411e-001	7.288730e-001	7.199074e-001	7.114919e-001	7.032968e-001	6.953752e-001	6.881513e-001	6.816452e-001	6.755647e-001	6.695740e-001	6.637261e-001	6.582101e-001	6.532110e-001	6.486719e-001	6.444916e-001	6.405009e-001	6.365846e-001	6.327053e-001	6.287620e-001	6.247855e-001	6.208210e-001	6.170619e-001	6.136494e-001	6.105435e-001	6.075863e-001	6.048248e-001	6.022863e-001	6.001158e-001	5.985730e-001	5.987650e-001	6.007031e-001	6.015791e-001	5.995897e-001	6.486812e-001	8.281288e-001	9.905194e-001	1.006331e+000	9.990245e-001	9.971091e-001	9.978120e-001	9.967586e-001	9.944842e-001	9.917629e-001	9.883250e-001	9.841134e-001	9.791279e-001	9.735638e-001	9.676005e-001	9.616895e-001	9.563180e-001	9.521865e-001	9.500526e-001	9.506443e-001	9.544977e-001	9.616813e-001	9.718190e-001	9.840801e-001	9.973633e-001	1.010455e+000	1.022394e+000	1.032421e+000	1.040122e+000	1.045524e+000	1.049221e+000	1.052301e+000	1.056143e+000	1.061962e+000	1.070291e+000	1.080720e+000	1.092077e+000	1.103087e+000	1.112925e+000	1.121314e+000	1.128658e+000	1.135503e+000	1.143207e+000	1.152326e+000	1.164558e+000	1.179086e+000	1.173574e+000	9.989283e-001	9.997160e-001	9.998010e-001	9.996911e-001	9.996211e-001	9.995315e-001	9.994233e-001	9.992866e-001	9.991368e-001	9.990352e-001	9.989852e-001	9.990549e-001	9.992159e-001	9.995084e-001	9.997513e-001	9.999463e-001	1.000055e+000	1.000123e+000	1.000164e+000	1.000183e+000	1.000194e+000	1.000198e+000	1.000201e+000	1.000207e+000	1.000213e+000	1.000221e+000	1.000237e+000	1.000258e+000	1.000287e+000	1.000330e+000	1.000378e+000	1.000456e+000	1.000531e+000	1.000655e+000	1.000766e+000	1.000898e+000	1.001030e+000	1.001074e+000	1.001080e+000	1.000993e+000	1.000899e+000	1.000766e+000	1.000641e+000	1.000518e+000	1.000409e+000	1.000272e+000	1.000161e+000	1.000189e+000	9.994186e-001	9.983908e-001	9.531549e-001	9.459440e-001	6.105425e-001	9.924600e-001	9.213510e-001	1.180677e+000	1.171913e+000	9.083075e-001	9.408415e-001	1.303190e+000	9.206362e-001	9.605062e-001	1.149923e+000	1.143420e+000	1.014322e+000	9.322253e-001	1.345220e+000	1.135252e+000	1.124544e+000	1.320764e+000	9.472418e-001	9.042140e-001	9.003372e-001	6.287030e-001	9.239474e-001	6.583469e-001	9.537716e-001	1.073101e+000	9.843708e-001	9.129434e-001	1.008861e+000	1.341963e+000	1.032826e+000	1.023702e+000	1.114510e+000	9.243911e-001	9.382284e-001	1.048524e+000	1.111008e+000	1.078070e+000	7.863951e-001	9.977116e-001	9.143103e-001	1.162579e+000	9.469269e-001	9.264076e-001	9.401554e-001	9.304846e-001	9.355379e-001	9.330277e-001	8.265989e-001	1.064816e+000	9.179891e-001	9.959036e-001	9.210903e-001	7.814746e-001	9.436663e-001	1.041191e+000	7.183169e-001	1.028337e+000	7.990400e-001	7.560661e-001	8.939151e-001	8.582332e-001	9.441422e-001	7.747717e-001	9.476449e-001	9.694771e-001	1.089216e+000	1.155951e+000	1.197872e+000	9.935345e-001	1.017470e+000	1.039019e+000	1.095116e+000	1.262233e+000	9.122462e-001	7.344587e-001	9.422577e-001	9.267144e-001	9.033300e-001	8.418382e-001	7.428731e-001	9.457340e-001	9.438363e-001	9.742268e-001	1.228784e+000	1.140876e+000	9.353726e-001	7.646058e-001	1.209790e+000	7.379381e-001	8.756557e-001	7.197283e-001	7.320146e-001	9.282239e-001	9.369747e-001	1.336719e+000	1.293215e+000	5.989855e-001	1.345752e+000	9.290813e-001	8.354886e-001	8.772645e-001	7.376954e-001	6.137610e-001	1.145775e+000	6.015036e-001	6.022719e-001	1.086693e+000	1.068230e+000	1.006126e+000	6.006288e-001	6.074951e-001	6.207378e-001	1.041834e+000	1.027134e+000	7.863330e-001	1.096591e+000	1.061096e+000	1.051152e+000	7.596748e-001	8.176316e-001	6.451908e-001	6.536931e-001	6.946994e-001	6.370024e-001	6.047400e-001	6.171616e-001	7.103794e-001	7.281765e-001	9.959357e-001	6.813726e-001	6.690475e-001	9.968030e-001	6.914337e-001	9.775051e-001	9.861868e-001	9.590991e-001	9.675386e-001	9.646826e-001	9.567383e-001	1.017258e+000	9.829637e-001	1.055588e+000	1.035357e+000	1.076967e+000	9.727819e-001	9.944054e-001	9.568439e-001	9.592812e-001	9.725401e-001	9.628671e-001	9.896280e-001	9.820923e-001	9.971942e-001	9.947903e-001	6.073198e-001	1.001115e+000	6.750902e-001	6.634741e-001	7.021897e-001	6.878875e-001	8.552475e-001	7.191585e-001	1.031342e+000	9.018008e-001	7.489208e-001	1.166315e+000	1.061854e+000	9.003439e-001	8.971371e-001	9.379137e-001	1.215788e+000	9.595027e-001	1.118298e+000	7.724575e-001	8.013256e-001	6.493422e-001	7.480994e-001	1.105969e+000	1.114467e+000	6.411024e-001	1.122216e+000	1.129564e+000	6.329026e-001	6.246058e-001	1.046875e+000	1.189544e+000	1.156503e+000	1.167250e+000	9.477729e-001	1.018235e+000	1.137214e+000	6.014813e-001	1.261244e+000	1.168635e+000	9.327036e-001	8.124042e-001	7.264452e-001	8.143411e-001	1.280402e+000	1.314564e+000	7.284357e-001	9.401251e-001	1.013661e+000	1.192485e+000	8.443184e-001	9.431702e-001	9.118953e-001	1.133392e+000	8.481166e-001	9.393289e-001	9.175393e-001	9.005162e-001	1.301864e+000	7.569684e-001	1.139195e+000	1.059311e+000	8.071683e-001	9.362779e-001	9.470238e-001	9.286381e-001	9.190480e-001	9.205094e-001	9.931722e-001	9.090129e-001	1.117739e+000	1.004170e+000	9.946170e-001	9.689016e-001	7.592697e-001	9.926399e-001	7.107804e-001	9.931421e-001	1.115253e+000	6.378209e-001	6.055616e-001	1.059787e+000	1.003263e+000	1.122585e+000	1.066183e+000	1.099225e+000	6.703242e-001	6.422470e-001	6.760061e-001	7.711829e-001	9.454904e-001	7.645496e-001	1.077273e+000	7.281500e-001	8.696238e-001	1.081904e+000	1.129927e+000	1.013278e+000	7.944587e-001	1.201642e+000	1.146457e+000	1.137691e+000	1.159796e+000	1.244046e+000	1.220413e+000	1.337988e+000	1.339411e+000	1.113968e+000	1.210121e+000	9.580335e-001	1.161825e+000	1.147678e+000	6.179281e-001	9.420832e-001	1.124271e+000	9.668931e-001	1.008538e+000	1.141025e+000	1.325257e+000	9.268931e-001	6.216458e-001	9.271436e-001	6.554727e-001	9.528899e-001	9.805220e-001	9.382257e-001	1.004305e+000	1.021275e+000	1.039998e+000	1.066180e+000	1.048444e+000	1.072342e+000	1.113192e+000	8.348384e-001	9.214600e-001	9.163358e-001	1.154396e+000	9.307151e-001	9.331232e-001	9.355559e-001	1.089774e+000	9.218204e-001	9.247993e-001	9.285730e-001	1.021149e+000	1.027566e+000	1.033417e+000	8.207252e-001	8.826975e-001	9.439450e-001	9.477192e-001	1.086454e+000	1.100419e+000	9.317904e-001	9.267802e-001	8.657857e-001	8.498232e-001	9.455677e-001	9.468423e-001	9.995725e-001	9.785359e-001	1.165237e+000	9.390124e-001	9.267511e-001	7.830943e-001	7.732012e-001	7.504257e-001	7.452084e-001	7.225881e-001	7.518033e-001	7.412489e-001	1.335366e+000	1.249231e+000	8.915685e-001	1.107502e+000	6.024909e-001	6.050037e-001	6.060950e-001	6.082122e-001	1.090598e+000	1.073634e+000	1.037976e+000	6.111792e-001	6.143644e-001	6.255648e-001	1.030902e+000	1.054275e+000	8.311726e-001	8.495570e-001	6.650834e-001	6.601118e-001	7.190831e-001	7.381139e-001	7.484025e-001	9.655207e-001	9.806599e-001	9.843283e-001	9.686722e-001	9.648484e-001	1.022599e+000	9.835673e-001	9.752963e-001	9.631262e-001	9.635082e-001	9.725623e-001	9.766076e-001	9.876456e-001	9.903451e-001	9.967618e-001	9.963916e-001	6.268516e-001	5.931397e-001	9.944898e-001	1.004597e+000	6.820273e-001	6.886434e-001	6.956537e-001	7.031082e-001	1.039408e+000	9.158236e-001	9.427015e-001	9.085298e-001	9.112544e-001	9.378655e-001	9.400345e-001	1.202942e+000	9.721046e-001	7.843447e-001	7.987452e-001	6.465699e-001	6.509669e-001	6.294929e-001	6.335691e-001	1.049205e+000	1.043953e+000	9.480765e-001	9.478889e-001	1.043313e+000	1.277395e+000	7.372284e-001	1.305119e+000	9.234937e-001	7.327238e-001	9.176234e-001	9.420954e-001	1.018984e+000	1.115892e+000	1.108782e+000	1.070706e+000	1.192175e+000	1.123287e+000	1.156229e+000	1.169722e+000	1.152690e+000	1.191880e+000	1.113677e+000	1.315519e+000	9.083698e-001	1.026203e+000	1.132104e+000	6.930518e-001	1.171464e+000	1.212144e+000	9.398270e-001	1.262485e+000	9.362841e-001	1.137194e+000	9.660894e-001	1.186687e+000	8.956969e-001	9.536478e-001	9.428325e-001	1.139517e+000	1.161761e+000	1.093607e+000	6.074326e-001	1.057915e+000	9.944032e-001	1.130005e+000	6.104777e-001	6.671846e-001	6.479327e-001	7.293343e-001	8.454308e-001	1.163765e+000	1.282061e+000	1.258053e+000	1.046818e+000	1.291807e+000	1.068466e+000	9.263349e-001	1.332452e+000	8.159004e-001	9.311102e-001	1.090619e+000	1.117533e+000	9.736507e-001	9.711249e-001	9.925460e-001	1.101396e+000	1.063983e+000	1.010766e+000	1.001855e+000	6.525945e-001	6.620927e-001	6.838604e-001	7.840236e-001	9.469012e-001	9.451715e-001	7.734772e-001	1.081532e+000	7.382814e-001	1.085783e+000	1.137417e+000	1.154753e+000	1.228112e+000	1.237514e+000	1.318826e+000	1.067949e+000	1.184054e+000	1.176117e+000	1.080458e+000	1.124134e+000	9.590869e-001	9.292650e-001	6.266465e-001	9.314035e-001	9.418288e-001	9.784638e-001	9.902970e-001	9.640457e-001	9.449438e-001	1.001085e+000	1.010696e+000	1.047939e+000	1.057459e+000	1.114954e+000	9.237196e-001	9.201190e-001	1.145753e+000	9.333269e-001	9.356951e-001	9.256037e-001	9.276128e-001	1.046178e+000	1.032930e+000	1.039903e+000	8.440966e-001	8.297121e-001	9.439048e-001	9.455188e-001	1.092671e+000	1.104290e+000	9.322547e-001	9.279862e-001	8.910793e-001	8.743644e-001	8.586983e-001	9.468388e-001	9.478326e-001	1.025103e+000	1.004247e+000	9.837689e-001	9.380807e-001	9.343814e-001	9.250389e-001	8.035203e-001	7.925170e-001	7.825163e-001	7.653855e-001	7.583388e-001	7.380448e-001	7.973037e-001	7.528119e-001	9.063011e-001	6.110679e-001	6.130148e-001	1.078034e+000	6.156127e-001	6.189346e-001	6.225546e-001	6.308452e-001	1.034546e+000	8.641396e-001	8.844765e-001	6.723910e-001	6.780636e-001	7.483171e-001	7.598918e-001	7.718395e-001	9.829796e-001	1.027380e+000	1.019359e+000	9.931378e-001	9.851770e-001	9.786334e-001	9.704124e-001	9.691764e-001	9.694908e-001	9.736166e-001	9.766441e-001	9.798159e-001	9.857768e-001	9.883790e-001	9.904304e-001	9.961962e-001	6.031355e-001	5.990367e-001	9.936334e-001	9.940870e-001	1.007342e+000	6.901266e-001	6.966878e-001	7.041464e-001	7.121597e-001	7.207585e-001	9.298238e-001	9.558256e-001	9.169263e-001	9.188262e-001	9.235630e-001	9.379715e-001	9.401038e-001	9.842946e-001	1.014435e+000	7.973550e-001	8.121518e-001	8.281629e-001	6.573122e-001	6.352200e-001	6.393925e-001	6.435642e-001	1.052297e+000	1.046776e+000	1.040966e+000	9.483706e-001	9.484581e-001	9.479554e-001	7.479891e-001	7.418752e-001	1.285337e+000	9.167348e-001	1.129795e+000	1.095698e+000	9.438093e-001	1.294127e+000	1.158875e+000	1.024894e+000	1.032298e+000	1.069031e+000	1.116226e+000	6.181745e-001	1.264039e+000	1.083714e+000	1.201765e+000	1.067927e+000	1.122995e+000	1.238490e+000	9.927889e-001	1.211881e+000	1.172299e+000	1.186743e+000	9.242237e-001	8.265425e-001	1.112435e+000	9.260498e-001	9.341771e-001	9.315547e-001	7.465287e-001	1.102725e+000	6.305738e-001	1.061646e+000	1.055730e+000	9.761299e-001	7.508808e-001	6.817315e-001	1.123744e+000	8.783416e-001	9.674413e-001	1.144466e+000	1.109567e+000	1.144335e+000	1.086419e+000	1.133990e+000	9.428214e-001	1.224481e+000	9.403891e-001	9.368100e-001	1.156598e+000	1.130936e+000	1.179331e+000	9.774977e-001	6.137480e-001	6.651770e-001	1.269092e+000	1.115725e+000	9.913678e-001	1.009845e+000	6.603597e-001	6.706162e-001	6.758084e-001	9.468799e-001	9.453040e-001	1.088529e+000	1.147842e+000	1.180603e+000	1.246333e+000	1.299851e+000	1.090488e+000	1.075827e+000	1.115670e+000	8.459292e-001	9.462275e-001	9.562794e-001	9.784745e-001	9.892821e-001	9.702891e-001	9.519889e-001	9.993401e-001	1.008731e+000	1.017210e+000	1.055896e+000	1.065545e+000	9.269661e-001	9.262536e-001	1.137805e+000	9.336157e-001	9.358906e-001	9.277468e-001	9.296901e-001	1.039526e+000	1.047186e+000	8.544902e-001	8.394952e-001	9.454955e-001	1.096777e+000	1.106667e+000	9.339926e-001	9.303198e-001	8.998802e-001	8.839162e-001	8.691784e-001	9.468414e-001	9.479525e-001	1.049080e+000	1.028773e+000	1.008443e+000	9.889232e-001	9.200702e-001	9.362560e-001	9.295823e-001	9.256022e-001	8.149560e-001	8.039279e-001	7.937584e-001	7.841175e-001	7.756873e-001	8.505831e-001	7.735864e-001	7.681202e-001	6.200729e-001	1.081466e+000	1.074534e+000	6.223750e-001	6.251714e-001	6.290880e-001	6.329224e-001	6.375498e-001	8.988147e-001	9.208533e-001	6.874210e-001	6.939707e-001	7.607742e-001	7.719944e-001	7.849205e-001	7.982740e-001	1.031893e+000	1.024993e+000	1.017519e+000	1.002004e+000	9.947618e-001	9.881794e-001	9.826918e-001	9.758289e-001	9.748198e-001	9.741666e-001	9.774057e-001	9.801324e-001	9.822340e-001	9.848129e-001	9.869460e-001	9.888619e-001	9.904325e-001	6.072920e-001	5.960444e-001	9.941996e-001	9.956000e-001	1.005525e+000	1.001902e+000	7.001597e-001	7.072112e-001	7.141182e-001	7.224193e-001	7.311094e-001	7.407731e-001	9.435680e-001	9.677030e-001	9.271233e-001	9.309056e-001	9.373014e-001	9.381560e-001	9.399732e-001	9.420315e-001	9.947815e-001	1.023294e+000	1.052381e+000	8.117259e-001	8.262233e-001	8.425416e-001	8.598896e-001	6.419591e-001	6.467805e-001	6.511426e-001	6.554730e-001	1.038381e+000	1.049984e+000	1.044353e+000	9.486395e-001	9.489686e-001	9.487686e-001	9.481717e-001	7.620705e-001	7.560432e-001	7.488939e-001	1.151233e+000	1.125326e+000	1.081534e+000	1.167187e+000	1.171964e+000	9.402388e-001	9.257516e-001	1.192022e+000	1.090601e+000	1.231341e+000	1.089912e+000	8.398955e-001	7.756366e-001	1.113992e+000	1.197756e+000	1.269103e+000	1.312157e+000	1.312677e+000	1.303515e+000	1.247477e+000	1.139451e+000	6.745042e-001	1.090737e+000	1.123337e+000	1.038731e+000	9.331608e-001	9.279887e-001	1.116194e+000	1.036302e+000	1.053645e+000	6.147758e-001	6.161614e-001	9.909914e-001	9.803283e-001	6.276988e-001	9.443812e-001	6.676595e-001	1.110022e+000	9.425323e-001	1.158034e+000	1.097131e+000	1.305871e+000	1.181298e+000	1.172250e+000	1.031070e+000	1.070779e+000	1.265227e+000	1.085292e+000	1.211981e+000	1.065134e+000	1.221521e+000	1.168712e+000	1.174923e+000	1.130893e+000	8.118136e-001	7.732585e-001	1.103543e+000	7.043045e-001	1.059299e+000	1.115986e+000	9.447134e-001	1.247150e+000	6.784381e-001	6.859813e-001	6.902925e-001	9.478709e-001	1.142097e+000	1.170366e+000	1.278158e+000	1.111033e+000	9.607284e-001	9.687284e-001	9.797820e-001	9.890947e-001	9.594997e-001	9.773388e-001	9.992248e-001	1.007643e+000	1.016185e+000	1.024661e+000	1.063178e+000	1.072261e+000	9.332107e-001	1.129914e+000	9.333749e-001	9.358394e-001	9.287826e-001	9.310436e-001	1.046845e+000	1.054506e+000	8.646671e-001	8.489953e-001	1.099721e+000	1.108184e+000	9.364268e-001	9.090978e-001	8.929316e-001	8.819037e-001	9.473519e-001	1.051826e+000	1.032481e+000	1.013100e+000	9.952297e-001	8.777660e-001	9.261421e-001	9.334523e-001	9.315209e-001	9.298640e-001	8.258882e-001	8.172249e-001	8.039639e-001	7.964925e-001	7.852336e-001	1.084036e+000	1.077610e+000	1.071295e+000	6.296941e-001	6.335796e-001	6.354455e-001	6.407515e-001	6.437359e-001	9.132064e-001	9.349527e-001	6.985798e-001	7.033380e-001	7.833475e-001	7.982184e-001	8.129908e-001	1.030121e+000	1.023349e+000	1.016765e+000	1.009445e+000	1.003126e+000	9.961297e-001	9.908707e-001	9.837495e-001	9.805171e-001	9.788464e-001	9.835336e-001	9.871680e-001	9.887881e-001	1.009659e+000	9.832053e-001	7.124082e-001	7.174078e-001	7.272424e-001	7.326967e-001	7.438906e-001	7.534652e-001	7.641848e-001	9.572584e-001	9.797472e-001	9.380298e-001	9.421670e-001	9.512138e-001	9.384422e-001	9.409743e-001	1.004155e+000	1.031235e+000	1.057761e+000	8.274035e-001	8.419321e-001	8.577244e-001	8.760062e-001	8.943389e-001	6.496408e-001	6.531216e-001	6.592901e-001	6.642349e-001	1.048202e+000	1.042054e+000	9.491014e-001	9.493423e-001	7.791803e-001	7.700776e-001	7.663427e-001	7.593165e-001	1.164864e+000	1.150807e+000	1.182205e+000	1.279992e+000	1.179827e+000	1.093702e+000	1.104208e+000	1.227755e+000	1.068129e+000	1.141829e+000	1.109147e+000	1.259515e+000	1.089472e+000	1.164037e+000	6.795288e-001	1.167111e+000	1.136320e+000	1.205703e+000	1.145483e+000	1.085680e+000	9.434940e-001	1.098087e+000	8.188685e-001	1.045518e+000	1.034187e+000	9.499936e-001	9.344596e-001	8.448869e-001	1.231203e+000	9.295462e-001	9.683427e-001	9.518908e-001	8.050445e-001	1.085800e+000	1.036983e+000	1.247652e+000	1.111400e+000	1.077544e+000	1.161922e+000	1.091845e+000	1.309064e+000	1.246268e+000	1.116261e+000	9.421384e-001	6.325092e-001	6.383992e-001	1.110294e+000	1.169071e+000	1.128072e+000	1.284570e+000	1.175471e+000	1.072251e+000	1.216503e+000	1.199809e+000	6.412027e-001	1.108323e+000	1.062789e+000	1.056825e+000	6.138651e-001	6.911880e-001	7.042820e-001	9.450855e-001	1.160796e+000	1.184345e+000	1.127647e+000	9.766036e-001	9.941012e-001	9.842913e-001	1.011206e+000	1.024354e+000	1.069296e+000	1.122994e+000	9.334603e-001	1.053769e+000	1.061179e+000	8.678294e-001	1.101510e+000	9.400028e-001	9.399223e-001	9.118268e-001	8.916763e-001	9.465303e-001	1.054454e+000	1.035141e+000	1.017100e+000	1.003771e+000	9.061221e-001	9.368204e-001	9.328579e-001	8.222176e-001	8.016119e-001	1.079849e+000	1.074015e+000	6.459748e-001	6.538388e-001	9.476352e-001	7.186989e-001	8.271528e-001	9.838460e-001	1.025262e+000	1.012629e+000	1.000805e+000	9.926127e-001	9.871060e-001	9.825192e-001	9.835469e-001	9.860790e-001	9.873530e-001	9.859905e-001	9.985370e-001	1.014718e+000	8.686531e-001	7.343827e-001	7.510308e-001	7.677569e-001	7.754674e-001	7.897758e-001	9.702509e-001	9.914887e-001	9.437287e-001	9.514456e-001	9.643961e-001	9.380172e-001	9.408273e-001	1.013096e+000	1.037530e+000	1.062373e+000	1.086404e+000	8.436994e-001	8.584185e-001	8.736497e-001	8.912348e-001	9.122767e-001	9.262135e-001	6.629896e-001	6.723310e-001	1.051760e+000	1.046226e+000	9.489140e-001	9.496643e-001	9.479553e-001	7.847719e-001	7.800586e-001	1.115570e+000	1.165202e+000	1.160667e+000	1.134316e+000	1.030920e+000	1.104954e+000	1.164273e+000	1.136797e+000	1.188187e+000	1.140075e+000	1.148049e+000	1.128512e+000	1.152103e+000	1.227850e+000	1.241513e+000	1.076029e+000	9.457508e-001	6.880319e-001	1.123389e+000	1.021506e+000	1.105897e+000	9.506392e-001	1.131020e+000	1.172719e+000	9.322755e-001	1.052198e+000	9.509119e-001	9.459375e-001	1.088762e+000	1.095891e+000	1.089014e+000	1.073837e+000	1.162064e+000	1.092873e+000	1.098602e+000	1.065524e+000	7.120372e-001	7.340402e-001	9.487895e-001	9.906913e-001	1.146651e+000	1.151783e+000	1.288659e+000	1.081449e+000	1.070560e+000	1.174975e+000	1.102886e+000	1.210296e+000	1.156272e+000	9.432018e-001	1.228851e+000	9.786290e-001	9.597718e-001	1.087165e+000	1.259580e+000	1.074153e+000	1.109636e+000	9.469504e-001	1.264018e+000	1.175086e+000	1.008522e+000	1.215967e+000	1.202616e+000	6.