# vtk DataFile Version 3.0
vtk output
ASCII
DATASET UNSTRUCTURED_GRID
POINTS 5233 float
9.997500e-001	-3.633211e-005	0.0	9.990000e-001	-1.454515e-004	0.0	9.977600e-001	-3.272637e-004	0.0	9.960200e-001	-5.884825e-004	0.0	9.937800e-001	-9.411662e-004	0.0	9.910500e-001	-1.402865e-003	0.0	9.878400e-001	-1.992721e-003	0.0	9.841300e-001	-2.725539e-003	0.0	9.799500e-001	-3.580062e-003	0.0	9.752800e-001	-4.504729e-003	0.0	9.701500e-001	-5.396907e-003	0.0	9.645400e-001	-6.138654e-003	0.0	9.584700e-001	-6.612413e-003	0.0	9.519400e-001	-6.745458e-003	0.0	9.449600e-001	-6.529239e-003	0.0	9.375400e-001	-6.022764e-003	0.0	9.296900e-001	-5.334178e-003	0.0	9.214000e-001	-4.589937e-003	0.0	9.127000e-001	-3.912454e-003	0.0	9.035800e-001	-3.393857e-003	0.0	8.940600e-001	-3.093405e-003	0.0	8.841500e-001	-3.035698e-003	0.0	8.738500e-001	-3.219317e-003	0.0	8.631800e-001	-3.625902e-003	0.0	8.521600e-001	-4.228453e-003	0.0	8.407700e-001	-5.001452e-003	0.0	8.290500e-001	-5.919015e-003	0.0	8.170100e-001	-6.962209e-003	0.0	8.046400e-001	-8.119825e-003	0.0	7.919700e-001	-9.381980e-003	0.0	7.790100e-001	-1.074406e-002	0.0	7.657800e-001	-1.220246e-002	0.0	7.522800e-001	-1.375650e-002	0.0	7.385200e-001	-1.540429e-002	0.0	7.245300e-001	-1.714043e-002	0.0	7.103200e-001	-1.896043e-002	0.0	6.958900e-001	-2.085968e-002	0.0	6.812700e-001	-2.282805e-002	0.0	6.664700e-001	-2.485662e-002	0.0	6.515000e-001	-2.693527e-002	0.0	6.363800e-001	-2.905152e-002	0.0	6.211300e-001	-3.119218e-002	0.0	6.057600e-001	-3.334496e-002	0.0	5.902800e-001	-3.549736e-002	0.0	5.747100e-001	-3.763548e-002	0.0	5.590600e-001	-3.974700e-002	0.0	5.433600e-001	-4.181731e-002	0.0	5.276100e-001	-4.383640e-002	0.0	5.118400e-001	-4.579114e-002	0.0	4.960500e-001	-4.767302e-002	0.0	4.802700e-001	-4.947092e-002	0.0	4.645100e-001	-5.117726e-002	0.0	4.487800e-001	-5.278548e-002	0.0	4.331100e-001	-5.428823e-002	0.0	4.175000e-001	-5.568233e-002	0.0	4.019700e-001	-5.696374e-002	0.0	3.865400e-001	-5.812962e-002	0.0	3.712300e-001	-5.917824e-002	0.0	3.560400e-001	-6.011003e-002	0.0	3.409900e-001	-6.092465e-002	0.0	3.261100e-001	-6.162200e-002	0.0	3.114000e-001	-6.220388e-002	0.0	2.968700e-001	-6.267155e-002	0.0	2.825500e-001	-6.302577e-002	0.0	2.684500e-001	-6.326791e-002	0.0	2.545700e-001	-6.339903e-002	0.0	2.409400e-001	-6.341948e-002	0.0	2.275700e-001	-6.332950e-002	0.0	2.144700e-001	-6.312873e-002	0.0	2.016600e-001	-6.281653e-002	0.0	1.891400e-001	-6.239127e-002	0.0	1.769300e-001	-6.185135e-002	0.0	1.650400e-001	-6.119450e-002	0.0	1.534900e-001	-6.041882e-002	0.0	1.422900e-001	-5.952177e-002	0.0	1.314400e-001	-5.849967e-002	0.0	1.209500e-001	-5.734943e-002	0.0	1.108500e-001	-5.607072e-002	0.0	1.011300e-001	-5.465878e-002	0.0	9.181000e-002	-5.311304e-002	0.0	8.290000e-002	-5.143233e-002	0.0	7.440000e-002	-4.961404e-002	0.0	6.633000e-002	-4.766046e-002	0.0	5.869000e-002	-4.557039e-002	0.0	5.149000e-002	-4.334580e-002	0.0	4.474000e-002	-4.099004e-002	0.0	3.844000e-002	-3.850396e-002	0.0	3.260000e-002	-3.589294e-002	0.0	2.723000e-002	-3.316444e-002	0.0	2.232000e-002	-3.031615e-002	0.0	1.790000e-002	-2.737047e-002	0.0	1.395000e-002	-2.432015e-002	0.0	1.049000e-002	-2.118703e-002	0.0	7.520000e-003	-1.798173e-002	0.0	5.040000e-003	-1.471625e-002	0.0	3.050000e-003	-1.140379e-002	0.0	1.560000e-003	-8.083516e-003	0.0	5.600000e-004	-4.759972e-003	0.0	6.000000e-005	-1.500274e-003	0.0	0.000000e+000	0.000000e+000	0.0	6.000000e-005	1.374259e-003	0.0	5.600000e-004	4.121031e-003	0.0	1.560000e-003	6.750893e-003	0.0	3.050000e-003	9.270064e-003	0.0	5.040000e-003	1.170928e-002	0.0	7.520000e-003	1.406443e-002	0.0	1.049000e-002	1.634626e-002	0.0	1.395000e-002	1.856315e-002	0.0	1.790000e-002	2.072209e-002	0.0	2.232000e-002	2.282000e-002	0.0	2.723000e-002	2.487261e-002	0.0	3.260000e-002	2.687249e-002	0.0	3.844000e-002	2.882820e-002	0.0	4.474000e-002	3.073941e-002	0.0	5.149000e-002	3.260539e-002	0.0	5.869000e-002	3.442723e-002	0.0	6.633000e-002	3.620230e-002	0.0	7.440000e-002	3.792735e-002	0.0	8.290000e-002	3.960038e-002	0.0	9.181000e-002	4.121469e-002	0.0	1.011300e-001	4.276689e-002	0.0	1.108500e-001	4.425112e-002	0.0	1.209500e-001	4.565993e-002	0.0	1.314400e-001	4.698983e-002	0.0	1.422900e-001	4.823199e-002	0.0	1.534900e-001	4.938059e-002	0.0	1.650400e-001	5.043097e-002	0.0	1.769300e-001	5.137767e-002	0.0	1.891400e-001	5.221520e-002	0.0	2.016600e-001	5.293971e-002	0.0	2.144700e-001	5.354780e-002	0.0	2.275700e-001	5.403798e-002	0.0	2.409400e-001	5.440897e-002	0.0	2.545700e-001	5.466104e-002	0.0	2.684500e-001	5.479553e-002	0.0	2.825500e-001	5.481497e-002	0.0	2.968700e-001	5.472322e-002	0.0	3.114000e-001	5.452500e-002	0.0	3.261100e-001	5.422637e-002	0.0	3.409900e-001	5.383403e-002	0.0	3.560400e-001	5.335485e-002	0.0	3.712300e-001	5.279700e-002	0.0	3.865400e-001	5.216872e-002	0.0	4.019700e-001	5.147723e-002	0.0	4.175000e-001	5.073021e-002	0.0	4.331100e-001	4.993473e-002	0.0	4.487800e-001	4.909701e-002	0.0	4.645100e-001	4.822103e-002	0.0	4.802700e-001	4.731103e-002	0.0	4.960500e-001	4.636871e-002	0.0	5.118400e-001	4.539420e-002	0.0	5.276100e-001	4.438737e-002	0.0	5.433600e-001	4.334486e-002	0.0	5.590600e-001	4.226412e-002	0.0	5.747100e-001	4.113982e-002	0.0	5.902800e-001	3.996842e-002	0.0	6.057600e-001	3.874520e-002	0.0	6.211300e-001	3.746707e-002	0.0	6.363800e-001	3.613168e-002	0.0	6.515000e-001	3.473878e-002	0.0	6.664700e-001	3.329187e-002	0.0	6.812700e-001	3.179796e-002	0.0	6.958900e-001	3.026686e-002	0.0	7.103200e-001	2.871233e-002	0.0	7.245300e-001	2.715417e-002	0.0	7.385200e-001	2.561239e-002	0.0	7.522800e-001	2.411070e-002	0.0	7.657800e-001	2.267636e-002	0.0	7.790100e-001	2.133410e-002	0.0	7.919700e-001	2.010548e-002	0.0	8.046400e-001	1.900959e-002	0.0	8.170100e-001	1.805787e-002	0.0	8.290500e-001	1.725440e-002	0.0	8.407700e-001	1.659052e-002	0.0	8.521600e-001	1.604908e-002	0.0	8.631800e-001	1.560484e-002	0.0	8.738500e-001	1.522322e-002	0.0	8.841500e-001	1.486800e-002	0.0	8.940600e-001	1.450329e-002	0.0	9.035800e-001	1.409592e-002	0.0	9.127000e-001	1.361808e-002	0.0	9.214000e-001	1.304763e-002	0.0	9.296900e-001	1.236444e-002	0.0	9.375400e-001	1.155556e-002	0.0	9.449600e-001	1.061119e-002	0.0	9.519400e-001	9.535465e-003	0.0	9.584700e-001	8.351567e-003	0.0	9.645400e-001	7.104726e-003	0.0	9.701500e-001	5.855571e-003	0.0	9.752800e-001	4.674560e-003	0.0	9.799500e-001	3.612974e-003	0.0	9.841300e-001	2.711231e-003	0.0	9.878400e-001	1.972697e-003	0.0	9.910500e-001	1.389983e-003	0.0	9.937800e-001	9.354527e-004	0.0	9.960200e-001	5.867004e-004	0.0	9.977600e-001	3.269093e-004	0.0	9.990000e-001	1.454178e-004	0.0	9.997500e-001	3.633156e-005	0.0	1.000000e+000	0.000000e+000	0.0	1.984229e+001	2.506660e+000	0.0	1.937166e+001	4.973800e+000	0.0	1.859553e+001	7.362490e+000	0.0	1.752613e+001	9.635070e+000	0.0	1.618034e+001	1.175571e+001	0.0	1.457937e+001	1.369094e+001	0.0	1.274848e+001	1.541027e+001	0.0	1.071654e+001	1.688656e+001	0.0	8.515590e+000	1.809654e+001	0.0	6.180340e+000	1.902113e+001	0.0	3.747630e+000	1.964575e+001	0.0	1.255810e+000	1.996053e+001	0.0	-1.255810e+000	1.996053e+001	0.0	-3.747630e+000	1.964574e+001	0.0	-6.180340e+000	1.902113e+001	0.0	-8.515590e+000	1.809654e+001	0.0	-1.071654e+001	1.688656e+001	0.0	-1.274848e+001	1.541026e+001	0.0	-1.457937e+001	1.369094e+001	0.0	-1.618034e+001	1.175570e+001	0.0	-1.752613e+001	9.635070e+000	0.0	-1.859553e+001	7.362490e+000	0.0	-1.937166e+001	4.973800e+000	0.0	-1.984229e+001	2.506660e+000	0.0	-2.000000e+001	0.000000e+000	0.0	-1.984229e+001	-2.506670e+000	0.0	-1.937166e+001	-4.973800e+000	0.0	-1.859553e+001	-7.362490e+000	0.0	-1.752613e+001	-9.635080e+000	0.0	-1.618034e+001	-1.175571e+001	0.0	-1.457937e+001	-1.369094e+001	0.0	-1.274848e+001	-1.541027e+001	0.0	-1.071653e+001	-1.688656e+001	0.0	-8.515580e+000	-1.809654e+001	0.0	-6.180340e+000	-1.902113e+001	0.0	-3.747620e+000	-1.964575e+001	0.0	-1.255810e+000	-1.996053e+001	0.0	1.255810e+000	-1.996053e+001	0.0	3.747630e+000	-1.964574e+001	0.0	6.180340e+000	-1.902113e+001	0.0	8.515590e+000	-1.809654e+001	0.0	1.071654e+001	-1.688656e+001	0.0	1.274848e+001	-1.541026e+001	0.0	1.457937e+001	-1.369094e+001	0.0	1.618034e+001	-1.175570e+001	0.0	1.752614e+001	-9.635070e+000	0.0	1.859553e+001	-7.362490e+000	0.0	1.937166e+001	-4.973790e+000	0.0	1.984229e+001	-2.506660e+000	0.0	2.000000e+001	0.000000e+000	0.0	6.046597e-002	-5.343560e-002	0.0	6.605372e-001	-3.975248e-002	0.0	4.260034e-001	6.468412e-002	0.0	6.898121e-001	4.443522e-002	0.0	3.797450e-001	-7.258405e-002	0.0	9.994547e-001	-7.204114e-004	0.0	9.985358e-001	-1.311835e-003	0.0	7.734693e-001	-2.395079e-002	0.0	6.900481e-001	-3.543445e-002	0.0	-1.511385e-003	6.307862e-003	0.0	7.466149e-001	-2.748362e-002	0.0	5.836074e-001	5.479135e-002	0.0	9.927679e-001	-3.641715e-003	0.0	9.898699e-001	-4.591111e-003	0.0	5.991564e-001	5.349729e-002	0.0	7.187777e-001	-3.132087e-002	0.0	-1.696800e-003	6.724280e-004	0.0	9.864797e-001	-5.654476e-003	0.0	9.826037e-001	-6.810128e-003	0.0	-1.699085e-003	-7.401881e-003	0.0	6.455261e-001	-4.196275e-002	0.0	8.238025e-001	-1.799152e-002	0.0	7.992225e-001	-2.078225e-002	0.0	3.488867e-001	6.737998e-002	0.0	8.470851e-001	-1.566541e-002	0.0	2.475312e-001	6.697022e-002	0.0	8.690131e-001	-1.391050e-002	0.0	1.003238e-002	2.068435e-002	0.0	8.895010e-001	-1.286627e-002	0.0	7.681727e-002	-5.816655e-002	0.0	9.085033e-001	-1.255836e-002	0.0	-2.082467e-003	-3.636406e-003	0.0	9.417630e-001	-1.280138e-002	0.0	9.259556e-001	-1.273126e-002	0.0	1.750286e-002	-3.270159e-002	0.0	4.264161e-001	-6.917336e-002	0.0	8.582265e-001	-1.470467e-002	0.0	9.558228e-001	-1.211352e-002	0.0	9.782293e-001	-8.043320e-003	0.0	9.680092e-001	-1.040027e-002	0.0	1.583800e-001	-7.138747e-002	0.0	8.991932e-001	-1.262856e-002	0.0	7.601750e-001	-2.567553e-002	0.0	9.971094e-001	-2.050508e-003	0.0	5.996453e-001	-4.865047e-002	0.0	4.421324e-001	-6.778893e-002	0.0	5.370325e-001	-5.721871e-002	0.0	4.737260e-001	-6.467204e-002	0.0	5.053987e-001	-6.112946e-002	0.0	4.895520e-001	-6.295082e-002	0.0	1.249443e-001	-6.747749e-002	0.0	2.742751e-002	-3.925150e-002	0.0	3.952102e-001	-7.157417e-002	0.0	4.587702e-002	-4.816
[...]
POINT_DATA 5233

SCALARS Density float 1
LOOKUP_TABLE default
1.179402e+000	1.156499e+000	1.142825e+000	1.131997e+000	1.121904e+000	1.110266e+000	1.093730e+000	1.069991e+000	1.037557e+000	9.944373e-001	9.396724e-001	8.949285e-001	8.852968e-001	9.083143e-001	9.491927e-001	9.945464e-001	1.034661e+000	1.065369e+000	1.086869e+000	1.100561e+000	1.107994e+000	1.110741e+000	1.110173e+000	1.107439e+000	1.103430e+000	1.098817e+000	1.094052e+000	1.089344e+000	1.084811e+000	1.080418e+000	1.076079e+000	1.071680e+000	1.067093e+000	1.062226e+000	1.057033e+000	1.051415e+000	1.045399e+000	1.038907e+000	1.031994e+000	1.024636e+000	1.016881e+000	1.008736e+000	1.000251e+000	9.914454e-001	9.823909e-001	9.731289e-001	9.637421e-001	9.542453e-001	9.447917e-001	9.356531e-001	9.269601e-001	9.180727e-001	9.083838e-001	9.002998e-001	8.997088e-001	9.089049e-001	9.133352e-001	8.818047e-001	8.013006e-001	7.378479e-001	7.238192e-001	7.306028e-001	7.372995e-001	7.405241e-001	7.425534e-001	7.449504e-001	7.477104e-001	7.504688e-001	7.531701e-001	7.560308e-001	7.594909e-001	7.639326e-001	7.693984e-001	7.755371e-001	7.821307e-001	7.893560e-001	7.977156e-001	8.075992e-001	8.189500e-001	8.317640e-001	8.461739e-001	8.622720e-001	8.802722e-001	9.002953e-001	9.225353e-001	9.472483e-001	9.745982e-001	1.004820e+000	1.038113e+000	1.074325e+000	1.113381e+000	1.154901e+000	1.197683e+000	1.240586e+000	1.281127e+000	1.316011e+000	1.339487e+000	1.349956e+000	1.338891e+000	1.313894e+000	1.297307e+000	1.253682e+000	1.166895e+000	1.091581e+000	1.023720e+000	9.663975e-001	9.213882e-001	8.876999e-001	8.624236e-001	8.431910e-001	8.283551e-001	8.165970e-001	8.071338e-001	7.991118e-001	7.920582e-001	7.857560e-001	7.798223e-001	7.738295e-001	7.674940e-001	7.606900e-001	7.535561e-001	7.463317e-001	7.390811e-001	7.315719e-001	7.235969e-001	7.152488e-001	7.069263e-001	6.987104e-001	6.905104e-001	6.822025e-001	6.739882e-001	6.661163e-001	6.588395e-001	6.521901e-001	6.461886e-001	6.407623e-001	6.358680e-001	6.315132e-001	6.276078e-001	6.241840e-001	6.212741e-001	6.190343e-001	6.175481e-001	6.166200e-001	6.159701e-001	6.154513e-001	6.150582e-001	6.148733e-001	6.148154e-001	6.149793e-001	6.149668e-001	6.147203e-001	6.146280e-001	6.154176e-001	6.164144e-001	6.125307e-001	6.037535e-001	6.612317e-001	8.448246e-001	9.878495e-001	9.942101e-001	9.878395e-001	9.903511e-001	9.959530e-001	1.000935e+000	1.006237e+000	1.011909e+000	1.017429e+000	1.022268e+000	1.026144e+000	1.028677e+000	1.029575e+000	1.028595e+000	1.025578e+000	1.020497e+000	1.013471e+000	1.004782e+000	9.948868e-001	9.844307e-001	9.741203e-001	9.647266e-001	9.571123e-001	9.524715e-001	9.522271e-001	9.579987e-001	9.707730e-001	9.901256e-001	1.013769e+000	1.038330e+000	1.061028e+000	1.080214e+000	1.095144e+000	1.106008e+000	1.113947e+000	1.120206e+000	1.126867e+000	1.135031e+000	1.146718e+000	1.161738e+000	1.154888e+000	9.988411e-001	9.996286e-001	9.996737e-001	9.995122e-001	9.993895e-001	9.992376e-001	9.990604e-001	9.988437e-001	9.986111e-001	9.984545e-001	9.983747e-001	9.984704e-001	9.986952e-001	9.991167e-001	9.994695e-001	9.997604e-001	9.999292e-001	1.000039e+000	1.000114e+000	1.000151e+000	1.000176e+000	1.000189e+000	1.000200e+000	1.000212e+000	1.000221e+000	1.000235e+000	1.000257e+000	1.000285e+000	1.000323e+000	1.000382e+000	1.000448e+000	1.000559e+000	1.000669e+000	1.000859e+000	1.001044e+000	1.001280e+000	1.001538e+000	1.001659e+000	1.001706e+000	1.001587e+000	1.001445e+000	1.001230e+000	1.001031e+000	1.000835e+000	1.000659e+000	1.000453e+000	1.000291e+000	1.000283e+000	9.994262e-001	9.982988e-001	9.118048e-001	1.028001e+000	6.178739e-001	9.914134e-001	9.156701e-001	1.159187e+000	1.147319e+000	1.072017e+000	1.041274e+000	1.244245e+000	1.063053e+000	6.175945e-001	1.111899e+000	1.098242e+000	6.088999e-001	1.052925e+000	1.314306e+000	1.080220e+000	1.056791e+000	1.341460e+000	1.020775e+000	1.088767e+000	1.080420e+000	6.274847e-001	1.096754e+000	6.639715e-001	1.102295e+000	9.582501e-001	1.100684e+000	8.731389e-001	1.084676e+000	1.344780e+000	9.820971e-001	1.046083e+000	1.118724e+000	9.028344e-001	1.100052e+000	9.214613e-001	1.026716e+000	9.420434e-001	7.827842e-001	1.095015e+000	1.067640e+000	1.134330e+000	9.969456e-001	9.076994e-001	9.616046e-001	9.266331e-001	9.435146e-001	9.350171e-001	8.064784e-001	1.047545e+000	9.222240e-001	9.588208e-001	9.090617e-001	7.334327e-001	7.602864e-001	1.015451e+000	7.458671e-001	1.016826e+000	7.899814e-001	7.660359e-001	8.566146e-001	8.284070e-001	9.796284e-001	7.761876e-001	1.005219e+000	1.102782e+000	1.082058e+000	1.123351e+000	1.234975e+000	8.927168e-001	1.068653e+000	9.470344e-001	9.863305e-001	1.182107e+000	1.092874e+000	7.532304e-001	9.706871e-001	1.058145e+000	1.076248e+000	8.166285e-001	7.592654e-001	9.884023e-001	1.034844e+000	9.342069e-001	1.271542e+000	1.157035e+000	8.495194e-001	7.705540e-001	1.191958e+000	7.562642e-001	8.417497e-001	7.415605e-001	7.503423e-001	9.173246e-001	1.047286e+000	1.292910e+000	1.328567e+000	6.167889e-001	1.327525e+000	8.516081e-001	8.062372e-001	8.250312e-001	7.538897e-001	6.188120e-001	1.128458e+000	6.169229e-001	6.164526e-001	1.051474e+000	1.010439e+000	9.927531e-001	6.165204e-001	6.171717e-001	6.218503e-001	9.643024e-001	9.757292e-001	7.841800e-001	1.069434e+000	9.913080e-001	9.669431e-001	7.692518e-001	7.985055e-001	6.453456e-001	6.572097e-001	7.128997e-001	6.354731e-001	6.167007e-001	6.200839e-001	7.299168e-001	7.462174e-001	7.277825e-001	6.960355e-001	6.792398e-001	1.005564e+000	6.193207e-001	1.010323e+000	1.001165e+000	1.025997e+000	1.019653e+000	1.021568e+000	1.027099e+000	9.839505e-001	1.009427e+000	9.763294e-001	9.688519e-001	1.031309e+000	1.016244e+000	1.001439e+000	1.027321e+000	1.025207e+000	1.015228e+000	1.023359e+000	9.966625e-001	1.005501e+000	9.781799e-001	9.927267e-001	6.171094e-001	6.153123e-001	6.875703e-001	6.713601e-001	7.213999e-001	7.045122e-001	8.149277e-001	7.382912e-001	9.216314e-001	8.370293e-001	7.624049e-001	1.058046e+000	9.172234e-001	1.084583e+000	7.301066e-001	9.524678e-001	1.119103e+000	8.697695e-001	1.003702e+000	7.768575e-001	7.912883e-001	6.510001e-001	7.615437e-001	1.084389e+000	1.096233e+000	6.401783e-001	1.105540e+000	1.113227e+000	6.312746e-001	6.243082e-001	9.632429e-001	1.172768e+000	1.138799e+000	1.149346e+000	1.013165e+000	9.858761e-001	1.120522e+000	6.166446e-001	1.303644e+000	1.196237e+000	8.914817e-001	7.977386e-001	7.479406e-001	8.035367e-001	1.228678e+000	1.276474e+000	7.544313e-001	1.043100e+000	1.069015e+000	1.222642e+000	6.214762e-001	1.037143e+000	1.071874e+000	1.085870e+000	7.383548e-001	1.092768e+000	1.086894e+000	8.679224e-001	1.325478e+000	7.700725e-001	1.152780e+000	9.465649e-001	7.990559e-001	1.048724e+000	1.024101e+000	9.178341e-001	8.845932e-001	9.230793e-001	1.088797e+000	1.075797e+000	1.024161e+000	9.179985e-001	9.977449e-001	1.021705e+000	7.705422e-001	9.928587e-001	7.286506e-001	1.006403e+000	1.096453e+000	6.360855e-001	6.190602e-001	9.949638e-001	9.994748e-001	1.104955e+000	1.009773e+000	1.074129e+000	6.781657e-001	6.407675e-001	6.860407e-001	7.786369e-001	1.030816e+000	7.741399e-001	9.825608e-001	7.457365e-001	8.314849e-001	1.043695e+000	1.112657e+000	9.923119e-001	7.912111e-001	1.185622e+000	1.128779e+000	1.120296e+000	1.071617e+000	1.176345e+000	1.255614e+000	1.333928e+000	1.320167e+000	1.118067e+000	1.193774e+000	9.229601e-001	1.135758e+000	1.113205e+000	6.218699e-001	9.686106e-001	1.067322e+000	1.094835e+000	6.139620e-001	1.100748e+000	1.336495e+000	9.103533e-001	6.236951e-001	1.090148e+000	6.573552e-001	1.094531e+000	1.093161e+000	9.028976e-001	1.080970e+000	1.052261e+000	9.779738e-001	1.052793e+000	9.556817e-001	9.576716e-001	1.044819e+000	8.167572e-001	1.063385e+000	1.067717e+000	1.124453e+000	9.265877e-001	9.348265e-001	9.429185e-001	1.084771e+000	9.171151e-001	9.091075e-001	7.516743e-001	9.948081e-001	1.030622e+000	1.004911e+000	8.075710e-001	8.527713e-001	9.772019e-001	1.001924e+000	9.858067e-001	1.017749e+000	1.053893e+000	1.058840e+000	8.392243e-001	8.272370e-001	9.856585e-001	9.939185e-001	9.689452e-001	9.449967e-001	1.187788e+000	8.135305e-001	8.943334e-001	7.844625e-001	7.788529e-001	7.664193e-001	7.629718e-001	7.514840e-001	7.455201e-001	7.597036e-001	1.307389e+000	1.285502e+000	8.432730e-001	1.086350e+000	6.190887e-001	6.187142e-001	6.188242e-001	6.190188e-001	1.059834e+000	1.026602e+000	9.757198e-001	6.195748e-001	6.205018e-001	6.260159e-001	9.796936e-001	9.837110e-001	8.120535e-001	8.212248e-001	6.707816e-001	6.637881e-001	7.371842e-001	7.543487e-001	7.625582e-001	1.023269e+000	1.009021e+000	1.005118e+000	1.020707e+000	1.024161e+000	9.855128e-001	1.012627e+000	1.017815e+000	1.025180e+000	1.024838e+000	1.017241e+000	1.013339e+000	1.001946e+000	9.981188e-001	1.003679e+000	8.903832e-001	6.212312e-001	6.197956e-001	6.501037e-001	6.069120e-001	6.941787e-001	7.027406e-001	7.114101e-001	7.201497e-001	9.474280e-001	8.572323e-001	8.739459e-001	1.079646e+000	1.083377e+000	9.513021e-001	9.599405e-001	1.123777e+000	8.938963e-001	7.869044e-001	7.952125e-001	6.458031e-001	6.513397e-001	6.287630e-001	6.320860e-001	9.768941e-001	9.744566e-001	1.009638e+000	1.017043e+000	1.022712e+000	1.310645e+000	7.568182e-001	1.320161e+000	9.242437e-001	7.614665e-001	1.071116e+000	9.672490e-001	1.055433e+000	1.097080e+000	1.088427e+000	1.025259e+000	1.127320e+000	1.105261e+000	1.138534e+000	1.151947e+000	1.125222e+000	1.175017e+000	1.118171e+000	1.294196e+000	8.798723e-001	1.039425e+000	1.091817e+000	6.240863e-001	1.148325e+000	1.240931e+000	1.044505e+000	1.290929e+000	1.049669e+000	1.149066e+000	1.087825e+000	1.211472e+000	7.522074e-001	1.087543e+000	1.039103e+000	1.104704e+000	1.180727e+000	1.066753e+000	6.219769e-001	9.999973e-001	1.006357e+000	1.112045e+000	6.219036e-001	6.709768e-001	6.463427e-001	7.456225e-001	8.255696e-001	1.145707e+000	1.304986e+000	1.213178e+000	9.686836e-001	1.259446e+000	9.756296e-001	8.965823e-001	1.318713e+000	8.082755e-001	9.267901e-001	1.087745e+000	1.040025e+000	1.020857e+000	1.020389e+000	9.943828e-001	1.078455e+000	1.011635e+000	9.989109e-001	1.004544e+000	6.518517e-001	6.641080e-001	6.936286e-001	7.888754e-001	1.027077e+000	1.033185e+000	7.826246e-001	1.002252e+000	7.540176e-001	1.053740e+000	1.119453e+000	1.082197e+000	1.172110e+000	1.267448e+000	1.321535e+000	1.058028e+000	1.165055e+000	1.155412e+000	9.928556e-001	1.077228e+000	6.213324e-001	9.191283e-001	6.275242e-001	1.083935e+000	1.086104e+000	1.086509e+000	1.083135e+000	9.345143e-001	9.148028e-001	1.077134e+000	1.068066e+000	9.823406e-001	9.723537e-001	1.059879e+000	1.063320e+000	1.067219e+000	1.115222e+000	9.347766e-001	9.427123e-001	9.169146e-001	9.144574e-001	1.030202e+000	1.020404e+000	1.000176e+000	8.276936e-001	8.176850e-001	9.754169e-001	9.834738e-001	1.016718e+000	1.039588e+000	1.054484e+000	1.058965e+000	8.646388e-001	8.506042e-001	8.382598e-001	9.913959e-001	9.991067e-001	1.004165e+000	9.793117e-001	9.559571e-001	7.861614e-001	8.624063e-001	9.161838e-001	8.002982e-001	7.936085e-001	7.877752e-001	7.780573e-001	7.739745e-001	7.575723e-001	7.515993e-001	7.702450e-001	8.607898e-001	6.216199e-001	6.219327e-001	1.039629e+000	6.225638e-001	6.236002e-001	6.252078e-001	6.303811e-001	9.855361e-001	8.360696e-001	8.477048e-001	6.780965e-001	6.857974e-001	7.626677e-001	7.718275e-001	7.805859e-001	1.007954e+000	9.887714e-001	9.935078e-001	1.009879e+000	1.014556e+000	1.018271e+000	1.022444e+000	1.022805e+000	1.022077e+000	1.017951e+000	1.014806e+000	1.011463e+000	1.005277e+000	1.002888e+000	9.982297e-001	9.900933e-001	6.237664e-001	6.230996e-001	7.775279e-001	6.227098e-001	6.059735e-001	7.018522e-001	7.101575e-001	7.190056e-001	7.279789e-001	7.370430e-001	8.759928e-001	8.941037e-001	1.074591e+000	1.078067e+000	1.081126e+000	9.507055e-001	9.589762e-001	9.153528e-001	9.398229e-001	7.974577e-001	8.065485e-001	8.158647e-001	6.578007e-001	6.338247e-001	6.374991e-001	6.415930e-001	9.913656e-001	9.862021e-001	9.843999e-001	1.006525e+000	1.013708e+000	1.020505e+000	7.668475e-001	7.640040e-001	1.301736e+000	8.921352e-001	1.111444e+000	1.071763e+000	9.736290e-001	1.276705e+000	1.134046e+000	1.044385e+000	1.030267e+000	1.061843e+000	1.097491e+000	6.259437e-001	1.285389e+000	1.017942e+000	1.225239e+000	1.025750e+000	1.104669e+000	1.199867e+000	1.008057e+000	1.164905e+000	1.154193e+000	1.168423e+000	1.070050e+000	8.192610e-001	1.116976e+000	9.234545e-001	9.087844e-001	9.278637e-001	7.699934e-001	1.081382e+000	6.279914e-001	1.014748e+000	1.005475e+000	1.016779e+000	7.640878e-001	6.874932e-001	1.084371e+000	8.505303e-001	1.080756e+000	1.126278e+000	1.089936e+000	1.116295e+000	1.020247e+000	1.144151e+000	1.040595e+000	1.249452e+000	1.045248e+000	1.050482e+000	1.172270e+000	1.096364e+000	1.199593e+000	1.019487e+000	6.253389e-001	6.659124e-001	1.240311e+000	1.051897e+000	1.006407e+000	1.003638e+000	6.598615e-001	6.729013e-001	6.797557e-001	1.029546e+000	1.034885e+000	1.061030e+000	1.088028e+000	1.126735e+000	1.270940e+000	1.306860e+000	1.089000e+000	1.004033e+000	1.070637e+000	6.209276e-001	1.079565e+000	1.080859e+000	1.079974e+000	1.076996e+000	9.457644e-001	9.266109e-001	1.072509e+000	1.065518e+000	1.056169e+000	9.941891e-001	9.942964e-001	1.062742e+000	1.065756e+000	1.107003e+000	9.352607e-001	9.430522e-001	9.199913e-001	9.218489e-001	1.015584e+000	1.002535e+000	8.398062e-001	8.284698e-001	9.815929e-001	1.037991e+000	1.055053e+000	1.054133e+000	1.059025e+000	8.766716e-001	8.628192e-001	8.510129e-001	9.891030e-001	9.965337e-001	1.037056e+000	1.012432e+000	9.883880e-001	9.660974e-001	7.813693e-001	8.336003e-001	8.963263e-001	9.230706e-001	8.116291e-001	8.046393e-001	7.983847e-001	7.925901e-001	7.876219e-001	7.650609e-001	7.662013e-001	7.830779e-001	6.261299e-001	1.049560e+000	1.037573e+000	6.270228e-001	6.282294e-001	6.302454e-001	6.326689e-001	6.361901e-001	8.636728e-001	8.783893e-001	6.949866e-001	7.033438e-001	7.725837e-001	7.815279e-001	7.910978e-001	8.002887e-001	9.938773e-001	9.962517e-001	9.995866e-001	1.007681e+000	1.011549e+000	1.014760e+000	1.017275e+000	1.019872e+000	1.019488e+000	1.019120e+000	1.014996e+000	1.011757e+000	1.009015e+000	1.005330e+000	1.002859e+000	1.000981e+000	9.996261e-001	6.266957e-001	6.265184e-001	9.040768e-001	6.888773e-001	6.272756e-001	6.097434e-001	7.112345e-001	7.197451e-001	7.278497e-001	7.368065e-001	7.457260e-001	7.549669e-001	8.943341e-001	9.128003e-001	1.072093e+000	1.075545e+000	1.077743e+000	9.509049e-001	9.576344e-001	9.658872e-001	9.347888e-001	9.594101e-001	9.866751e-001	8.090406e-001	8.182682e-001	8.285652e-001	8.392102e-001	6.399532e-001	6.445925e-001	6.491563e-001	6.540317e-001	9.932019e-001	9.986610e-001	9.946317e-001	1.003671e+000	1.010452e+000	1.017190e+000	1.023282e+000	7.791492e-001	7.756157e-001	7.727383e-001	1.164313e+000	1.106873e+000	1.026738e+000	1.148837e+000	1.188694e+000	1.047466e+000	9.047849e-001	1.211302e+000	1.066595e+000	1.252103e+000	1.089475e+000	8.326208e-001	7.844634e-001	1.061282e+000	1.158448e+000	1.252467e+000	1.301841e+000	1.303494e+000	1.293365e+000	1.266392e+000	1.111437e+000	6.758133e-001	1.039697e+000	1.089752e+000	1.027006e+000	1.065324e+000	9.278067e-001	1.097555e+000	9.995326e-001	1.011132e+000	6.308741e-001	6.305225e-001	9.892732e-001	1.012000e+000	6.307923e-001	9.752236e-001	6.674632e-001	1.090907e+000	9.212183e-001	1.139807e+000	1.075443e+000	1.302853e+000	1.161406e+000	1.150621e+000	1.037084e+000	1.066019e+000	1.280974e+000	1.030671e+000	1.232676e+000	1.027226e+000	1.188660e+000	1.149733e+000	1.156023e+000	1.139848e+000	7.776752e-001	7.808935e-001	1.083464e+000	6.225606e-001	1.018377e+000	1.078541e+000	1.038456e+000	1.222002e+000	6.810441e-001	6.903962e-001	6.961832e-001	1.028098e+000	1.092720e+000	1.125565e+000	1.288402e+000	1.115548e+000	1.074578e+000	1.075256e+000	1.073177e+000	1.072263e+000	9.384433e-001	9.574961e-001	1.067582e+000	1.063366e+000	1.055400e+000	1.046620e+000	1.010281e+000	1.015999e+000	1.059656e+000	1.099487e+000	9.346205e-001	9.423095e-001	9.254713e-001	9.294099e-001	1.016720e+000	1.010943e+000	8.515656e-001	8.386797e-001	1.053214e+000	1.066397e+000	1.054035e+000	8.891074e-001	8.741869e-001	8.656542e-001	9.901492e-001	1.043082e+000	1.019953e+000	9.972638e-001	9.771768e-001	7.893097e-001	8.147804e-001	8.667892e-001	9.119206e-001	9.255628e-001	8.223610e-001	8.171367e-001	8.080253e-001	8.038440e-001	7.964405e-001	1.057040e+000	1.047130e+000	1.037050e+000	6.314578e-001	6.339714e-001	6.352282e-001	6.392171e-001	6.415840e-001	8.798571e-001	8.956564e-001	7.062455e-001	7.124613e-001	7.905844e-001	8.018511e-001	8.123747e-001	1.000793e+000	1.001328e+000	1.004202e+000	1.006460e+000	1.009398e+000	1.011945e+000	1.013879e+000	1.016208e+000	1.016312e+000	1.015363e+000	1.005826e+000	9.997882e-001	1.011336e+000	7.188118e-001	6.247446e-001	7.229283e-001	7.290953e-001	7.395560e-001	7.456356e-001	7.563768e-001	7.654669e-001	7.749199e-001	9.127299e-001	9.310080e-001	1.069575e+000	1.072635e+000	1.072865e+000	9.512477e-001	9.610536e-001	9.522693e-001	9.768899e-001	1.002559e+000	8.220364e-001	8.316216e-001	8.422678e-001	8.547542e-001	8.669890e-001	6.471169e-001	6.506386e-001	6.573725e-001	6.632114e-001	1.005612e+000	1.002435e+000	1.003905e+000	1.016526e+000	7.934141e-001	7.874561e-001	7.855431e-001	7.809506e-001	1.141200e+000	1.132768e+000	1.198031e+000	1.269614e+000	1.160547e+000	1.053314e+000	1.085031e+000	1.205751e+000	1.037254e+000	1.115430e+000	1.074415e+000	1.270532e+000	1.089919e+000	1.177734e+000	6.807721e-001	1.148285e+000	1.095505e+000	1.177913e+000	1.156383e+000	1.043006e+000	9.700844e-001	1.078029e+000	7.958916e-001	1.027814e+000	1.037788e+000	1.009683e+000	9.170850e-001	8.394969e-001	1.247694e+000	9.323253e-001	9.515321e-001	9.346202e-001	8.077020e-001	1.062440e+000	1.006084e+000	1.232361e+000	1.067878e+000	1.033695e+000	1.143608e+000	1.070372e+000	1.301284e+000	1.260774e+000	1.084367e+000	1.047789e+000	6.362502e-001	6.377662e-001	1.091453e+000	1.149668e+000	1.109443e+000	1.287962e+000	1.154866e+000	1.069437e+000	1.233921e+000	1.216917e+000	6.322009e-001	1.112477e+000	1.029507e+000	1.022317e+000	6.341126e-001	6.952012e-001	7.112713e-001	1.040431e+000	1.123611e+000	1.151520e+000	1.135488e+000	1.068863e+000	1.065336e+000	9.684113e-001	1.057921e+000	1.047598e+000	1.026470e+000	1.093498e+000	9.372631e-001	1.022902e+000	1.022828e+000	8.571407e-001	1.063950e+000	1.053519e+000	1.058522e+000	8.951186e-001	8.775488e-001	9.836337e-001	1.048389e+000	1.025715e+000	1.004690e+000	9.899896e-001	8.287658e-001	8.991231e-001	9.311532e-001	8.235037e-001	8.101402e-001	1.054181e+000	1.045768e+000	6.432743e-001	6.510351e-001	9.121341e-001	7.281582e-001	8.242876e-001	1.012349e+000	1.005174e+000	1.007403e+000	1.010412e+000	1.012210e+000	1.012940e+000	1.010646e+000	1.006374e+000	9.983580e-001	1.003185e+000	1.019223e+000	8.888591e-001	6.541861e-001	6.210757e-001	7.452833e-001	7.619047e-001	7.773024e-001	7.841819e-001	7.958832e-001	9.306137e-001	9.488283e-001	1.063283e+000	1.067157e+000	1.068267e+000	9.488228e-001	9.590275e-001	9.685647e-001	9.917072e-001	1.016237e+000	1.041106e+000	8.360281e-001	8.460395e-001	8.567956e-001	8.698027e-001	8.852761e-001	8.946862e-001	6.608277e-001	6.716871e-001	1.015105e+000	1.011019e+000	9.972945e-001	1.020993e+000	1.031317e+000	7.997843e-001	7.930870e-001	1.096879e+000	1.142728e+000	1.136955e+000	1.115827e+000	1.022807e+000	1.086045e+000	1.144934e+000	1.110047e+000	1.202264e+000	1.149248e+000	1.122750e+000	1.100823e+000	1.121190e+000	1.213932e+000	1.252243e+000	1.052122e+000	1.047371e+000	6.895841e-001	1.104619e+000	1.049667e+000	1.109824e+000	9.198985e-001	1.097229e+000	1.185709e+000	9.346194e-001	1.031751e+000	1.014480e+000	9.782994e-001	1.054449e+000	1.062727e+000	1.090202e+000	1.072647e+000	1.143423e+000	1.073117e+000	1.079479e+000	1.038022e+000	7.184543e-001	6.226811e-001	1.033676e+000	9.780270e-001	1.128315e+000	1.133372e+000	1.284885e+000	1.046602e+000	1.044862e+000	1.155597e+000	1.071433e+000	1.191366e+000	1.167525e+000	9.666388e-001	1.241639e+000	9.655667e-001	9.457928e-001	1.066323e+000	1.250646e+000	1.039810e+000	1.079865e+000	1.041374e+000	1.269328e+000	1.154840e+000	9.977911e-001	1.230005e+000	1.217047e+000	6.