# vtk DataFile Version 3.0
vtk output
ASCII
DATASET UNSTRUCTURED_GRID
POINTS 5233 float
9.997500e-001	-3.633379e-005	0.0	9.990000e-001	-1.455584e-004	0.0	9.977600e-001	-3.284479e-004	0.0	9.960200e-001	-5.949737e-004	0.0	9.937800e-001	-9.651533e-004	0.0	9.910500e-001	-1.471300e-003	0.0	9.878400e-001	-2.155084e-003	0.0	9.841300e-001	-3.062259e-003	0.0	9.799500e-001	-4.204637e-003	0.0	9.752800e-001	-5.565415e-003	0.0	9.701500e-001	-7.065077e-003	0.0	9.645400e-001	-8.600619e-003	0.0	9.584700e-001	-1.004688e-002	0.0	9.519400e-001	-1.130609e-002	0.0	9.449600e-001	-1.232347e-002	0.0	9.375400e-001	-1.309531e-002	0.0	9.296900e-001	-1.365697e-002	0.0	9.214000e-001	-1.406340e-002	0.0	9.127000e-001	-1.436794e-002	0.0	9.035800e-001	-1.461614e-002	0.0	8.940600e-001	-1.484091e-002	0.0	8.841500e-001	-1.506749e-002	0.0	8.738500e-001	-1.531816e-002	0.0	8.631800e-001	-1.561507e-002	0.0	8.521600e-001	-1.598162e-002	0.0	8.407700e-001	-1.644303e-002	0.0	8.290500e-001	-1.702069e-002	0.0	8.170100e-001	-1.773302e-002	0.0	8.046400e-001	-1.859449e-002	0.0	7.919700e-001	-1.961086e-002	0.0	7.790100e-001	-2.078284e-002	0.0	7.657800e-001	-2.210460e-002	0.0	7.522800e-001	-2.356772e-002	0.0	7.385200e-001	-2.515954e-002	0.0	7.245300e-001	-2.686258e-002	0.0	7.103200e-001	-2.866014e-002	0.0	6.958900e-001	-3.053625e-002	0.0	6.812700e-001	-3.247092e-002	0.0	6.664700e-001	-3.444690e-002	0.0	6.515000e-001	-3.644730e-002	0.0	6.363800e-001	-3.845435e-002	0.0	6.211300e-001	-4.045075e-002	0.0	6.057600e-001	-4.242094e-002	0.0	5.902800e-001	-4.434980e-002	0.0	5.747100e-001	-4.622141e-002	0.0	5.590600e-001	-4.802168e-002	0.0	5.433600e-001	-4.973495e-002	0.0	5.276100e-001	-5.134984e-002	0.0	5.118400e-001	-5.285284e-002	0.0	4.960500e-001	-5.423468e-002	0.0	4.802700e-001	-5.548479e-002	0.0	4.645100e-001	-5.659597e-002	0.0	4.487800e-001	-5.756255e-002	0.0	4.331100e-001	-5.837944e-002	0.0	4.175000e-001	-5.904502e-002	0.0	4.019700e-001	-5.955816e-002	0.0	3.865400e-001	-5.991956e-002	0.0	3.712300e-001	-6.013153e-002	0.0	3.560400e-001	-6.019786e-002	0.0	3.409900e-001	-6.012305e-002	0.0	3.261100e-001	-5.991283e-002	0.0	3.114000e-001	-5.957335e-002	0.0	2.968700e-001	-5.911102e-002	0.0	2.825500e-001	-5.853325e-002	0.0	2.684500e-001	-5.784703e-002	0.0	2.545700e-001	-5.705848e-002	0.0	2.409400e-001	-5.617516e-002	0.0	2.275700e-001	-5.520334e-002	0.0	2.144700e-001	-5.414878e-002	0.0	2.016600e-001	-5.301769e-002	0.0	1.891400e-001	-5.181407e-002	0.0	1.769300e-001	-5.054328e-002	0.0	1.650400e-001	-4.920936e-002	0.0	1.534900e-001	-4.781721e-002	0.0	1.422900e-001	-4.637036e-002	0.0	1.314400e-001	-4.487065e-002	0.0	1.209500e-001	-4.332086e-002	0.0	1.108500e-001	-4.172683e-002	0.0	1.011300e-001	-4.008824e-002	0.0	9.181000e-002	-3.840942e-002	0.0	8.290000e-002	-3.669322e-002	0.0	7.440000e-002	-3.494048e-002	0.0	6.633000e-002	-3.315616e-002	0.0	5.869000e-002	-3.134114e-002	0.0	5.149000e-002	-2.949845e-002	0.0	4.474000e-002	-2.763139e-002	0.0	3.844000e-002	-2.574045e-002	0.0	3.260000e-002	-2.382878e-002	0.0	2.723000e-002	-2.189988e-002	0.0	2.232000e-002	-1.994937e-002	0.0	1.790000e-002	-1.798843e-002	0.0	1.395000e-002	-1.600662e-002	0.0	1.049000e-002	-1.401072e-002	0.0	7.520000e-003	-1.199729e-002	0.0	5.040000e-003	-9.960082e-003	0.0	3.050000e-003	-7.887866e-003	0.0	1.560000e-003	-5.776277e-003	0.0	5.600000e-004	-3.580147e-003	0.0	6.000000e-005	-1.242570e-003	0.0	0.000000e+000	0.000000e+000	0.0	6.000000e-005	1.426137e-003	0.0	5.600000e-004	4.361381e-003	0.0	1.560000e-003	7.214292e-003	0.0	3.050000e-003	9.958654e-003	0.0	5.040000e-003	1.261032e-002	0.0	7.520000e-003	1.515345e-002	0.0	1.049000e-002	1.759185e-002	0.0	1.395000e-002	1.992901e-002	0.0	1.790000e-002	2.216841e-002	0.0	2.232000e-002	2.430455e-002	0.0	2.723000e-002	2.635203e-002	0.0	3.260000e-002	2.830297e-002	0.0	3.844000e-002	3.016616e-002	0.0	4.474000e-002	3.194228e-002	0.0	5.149000e-002	3.363239e-002	0.0	5.869000e-002	3.523980e-002	0.0	6.633000e-002	3.676507e-002	0.0	7.440000e-002	3.820890e-002	0.0	8.290000e-002	3.957362e-002	0.0	9.181000e-002	4.085836e-002	0.0	1.011300e-001	4.206550e-002	0.0	1.108500e-001	4.319608e-002	0.0	1.209500e-001	4.425048e-002	0.0	1.314400e-001	4.523257e-002	0.0	1.422900e-001	4.614265e-002	0.0	1.534900e-001	4.698364e-002	0.0	1.650400e-001	4.775948e-002	0.0	1.769300e-001	4.847367e-002	0.0	1.891400e-001	4.912959e-002	0.0	2.016600e-001	4.973164e-002	0.0	2.144700e-001	5.028399e-002	0.0	2.275700e-001	5.079186e-002	0.0	2.409400e-001	5.125960e-002	0.0	2.545700e-001	5.169184e-002	0.0	2.684500e-001	5.209294e-002	0.0	2.825500e-001	5.246625e-002	0.0	2.968700e-001	5.281538e-002	0.0	3.114000e-001	5.314284e-002	0.0	3.261100e-001	5.344982e-002	0.0	3.409900e-001	5.373690e-002	0.0	3.560400e-001	5.400364e-002	0.0	3.712300e-001	5.424777e-002	0.0	3.865400e-001	5.446591e-002	0.0	4.019700e-001	5.465357e-002	0.0	4.175000e-001	5.480461e-002	0.0	4.331100e-001	5.491162e-002	0.0	4.487800e-001	5.496602e-002	0.0	4.645100e-001	5.495826e-002	0.0	4.802700e-001	5.487786e-002	0.0	4.960500e-001	5.471380e-002	0.0	5.118400e-001	5.445468e-002	0.0	5.276100e-001	5.408952e-002	0.0	5.433600e-001	5.360722e-002	0.0	5.590600e-001	5.299834e-002	0.0	5.747100e-001	5.225365e-002	0.0	5.902800e-001	5.136694e-002	0.0	6.057600e-001	5.033326e-002	0.0	6.211300e-001	4.915081e-002	0.0	6.363800e-001	4.781996e-002	0.0	6.515000e-001	4.634413e-002	0.0	6.664700e-001	4.473115e-002	0.0	6.812700e-001	4.299289e-002	0.0	6.958900e-001	4.114406e-002	0.0	7.103200e-001	3.920332e-002	0.0	7.245300e-001	3.719621e-002	0.0	7.385200e-001	3.514807e-002	0.0	7.522800e-001	3.308898e-002	0.0	7.657800e-001	3.105473e-002	0.0	7.790100e-001	2.907942e-002	0.0	7.919700e-001	2.719515e-002	0.0	8.046400e-001	2.543414e-002	0.0	8.170100e-001	2.382137e-002	0.0	8.290500e-001	2.237551e-002	0.0	8.407700e-001	2.109896e-002	0.0	8.521600e-001	1.998392e-002	0.0	8.631800e-001	1.901195e-002	0.0	8.738500e-001	1.814766e-002	0.0	8.841500e-001	1.735155e-002	0.0	8.940600e-001	1.658110e-002	0.0	9.035800e-001	1.579468e-002	0.0	9.127000e-001	1.495815e-002	0.0	9.214000e-001	1.404783e-002	0.0	9.296900e-001	1.304699e-002	0.0	9.375400e-001	1.195349e-002	0.0	9.449600e-001	1.077025e-002	0.0	9.519400e-001	9.514045e-003	0.0	9.584700e-001	8.214846e-003	0.0	9.645400e-001	6.915443e-003	0.0	9.701500e-001	5.664533e-003	0.0	9.752800e-001	4.514419e-003	0.0	9.799500e-001	3.497502e-003	0.0	9.841300e-001	2.638900e-003	0.0	9.878400e-001	1.933703e-003	0.0	9.910500e-001	1.372156e-003	0.0	9.937800e-001	9.288290e-004	0.0	9.960200e-001	5.848341e-004	0.0	9.977600e-001	3.265596e-004	0.0	9.990000e-001	1.453857e-004	0.0	9.997500e-001	3.633105e-005	0.0	1.000000e+000	0.000000e+000	0.0	1.984229e+001	2.506660e+000	0.0	1.937166e+001	4.973800e+000	0.0	1.859553e+001	7.362490e+000	0.0	1.752613e+001	9.635070e+000	0.0	1.618034e+001	1.175571e+001	0.0	1.457937e+001	1.369094e+001	0.0	1.274848e+001	1.541027e+001	0.0	1.071654e+001	1.688656e+001	0.0	8.515590e+000	1.809654e+001	0.0	6.180340e+000	1.902113e+001	0.0	3.747630e+000	1.964575e+001	0.0	1.255810e+000	1.996053e+001	0.0	-1.255810e+000	1.996053e+001	0.0	-3.747630e+000	1.964574e+001	0.0	-6.180340e+000	1.902113e+001	0.0	-8.515590e+000	1.809654e+001	0.0	-1.071654e+001	1.688656e+001	0.0	-1.274848e+001	1.541026e+001	0.0	-1.457937e+001	1.369094e+001	0.0	-1.618034e+001	1.175570e+001	0.0	-1.752613e+001	9.635070e+000	0.0	-1.859553e+001	7.362490e+000	0.0	-1.937166e+001	4.973800e+000	0.0	-1.984229e+001	2.506660e+000	0.0	-2.000000e+001	0.000000e+000	0.0	-1.984229e+001	-2.506670e+000	0.0	-1.937166e+001	-4.973800e+000	0.0	-1.859553e+001	-7.362490e+000	0.0	-1.752613e+001	-9.635080e+000	0.0	-1.618034e+001	-1.175571e+001	0.0	-1.457937e+001	-1.369094e+001	0.0	-1.274848e+001	-1.541027e+001	0.0	-1.071653e+001	-1.688656e+001	0.0	-8.515580e+000	-1.809654e+001	0.0	-6.180340e+000	-1.902113e+001	0.0	-3.747620e+000	-1.964575e+001	0.0	-1.255810e+000	-1.996053e+001	0.0	1.255810e+000	-1.996053e+001	0.0	3.747630e+000	-1.964574e+001	0.0	6.180340e+000	-1.902113e+001	0.0	8.515590e+000	-1.809654e+001	0.0	1.071654e+001	-1.688656e+001	0.0	1.274848e+001	-1.541026e+001	0.0	1.457937e+001	-1.369094e+001	0.0	1.618034e+001	-1.175570e+001	0.0	1.752614e+001	-9.635070e+000	0.0	1.859553e+001	-7.362490e+000	0.0	1.937166e+001	-4.973790e+000	0.0	1.984229e+001	-2.506660e+000	0.0	2.000000e+001	0.000000e+000	0.0	6.092725e-002	-3.934837e-002	0.0	6.604276e-001	-4.925996e-002	0.0	4.255562e-001	6.916476e-002	0.0	6.899990e-001	5.522134e-002	0.0	3.791699e-001	-7.379328e-002	0.0	9.994594e-001	-7.419722e-004	0.0	9.985376e-001	-1.349887e-003	0.0	7.735115e-001	-3.403169e-002	0.0	6.899838e-001	-4.509245e-002	0.0	-1.330436e-003	6.664212e-003	0.0	7.466215e-001	-3.735649e-002	0.0	5.834476e-001	6.575264e-002	0.0	9.927884e-001	-3.789457e-003	0.0	9.899098e-001	-4.835129e-003	0.0	5.990465e-001	6.469529e-002	0.0	7.187513e-001	-4.107763e-002	0.0	-1.482469e-003	8.837844e-004	0.0	9.865493e-001	-6.059011e-003	0.0	9.827125e-001	-7.464027e-003	0.0	-1.203150e-003	-5.525446e-003	0.0	6.453910e-001	-5.135864e-002	0.0	8.239621e-001	-2.888994e-002	0.0	7.993136e-001	-3.121092e-002	0.0	3.485087e-001	6.779525e-002	0.0	8.473359e-001	-2.702986e-002	0.0	2.474070e-001	6.414148e-002	0.0	8.693758e-001	-2.549233e-002	0.0	1.005432e-002	2.179351e-002	0.0	8.899775e-001	-2.411329e-002	0.0	7.715341e-002	-4.369378e-002	0.0	9.090625e-001	-2.271144e-002	0.0	-1.789098e-003	-2.720148e-003	0.0	9.422892e-001	-1.891984e-002	0.0	9.265351e-001	-2.107014e-002	0.0	1.823882e-002	-2.312928e-002	0.0	4.258932e-001	-7.272081e-002	0.0	8.585313e-001	-2.622832e-002	0.0	9.562394e-001	-1.605173e-002	0.0	9.783886e-001	-9.064288e-003	0.0	9.682917e-001	-1.258085e-002	0.0	1.581721e-001	-5.910946e-002	0.0	8.997172e-001	-2.342790e-002	0.0	7.601983e-001	-3.563687e-002	0.0	9.971122e-001	-2.111137e-003	0.0	5.994236e-001	-5.750973e-002	0.0	4.416303e-001	-7.204064e-002	0.0	5.366840e-001	-6.478274e-002	0.0	4.732692e-001	-7.020676e-002	0.0	5.049923e-001	-6.777034e-002	0.0	4.891196e-001	-6.906085e-002	0.0	1.249364e-001	-5.374298e-002	0.0	2.812483e-002	-2.791546e-002	0.0	3.946505e-001	-7.359769e-002	0.0	4.645138e-002	-3.487
[...]
POINT_DATA 5233

SCALARS Density float 1
LOOKUP_TABLE default
1.198584e+000	1.179689e+000	1.170868e+000	1.165482e+000	1.161521e+000	1.156751e+000	1.148068e+000	1.133208e+000	1.110081e+000	1.078081e+000	1.038382e+000	9.920387e-001	9.455720e-001	9.144228e-001	9.060136e-001	9.157162e-001	9.348249e-001	9.562529e-001	9.759389e-001	9.925554e-001	1.006408e+000	1.018150e+000	1.028264e+000	1.036901e+000	1.044089e+000	1.049696e+000	1.053656e+000	1.055880e+000	1.056427e+000	1.055374e+000	1.052837e+000	1.048965e+000	1.043920e+000	1.037846e+000	1.030940e+000	1.023268e+000	1.015006e+000	1.006186e+000	9.969266e-001	9.872415e-001	9.772284e-001	9.671859e-001	9.572691e-001	9.467015e-001	9.349382e-001	9.263180e-001	9.274631e-001	9.312812e-001	9.055988e-001	8.172666e-001	7.358969e-001	7.169457e-001	7.292134e-001	7.427431e-001	7.524343e-001	7.603117e-001	7.686374e-001	7.777284e-001	7.872219e-001	7.968134e-001	8.063829e-001	8.158700e-001	8.252139e-001	8.343916e-001	8.433371e-001	8.520212e-001	8.604598e-001	8.686758e-001	8.766756e-001	8.844628e-001	8.920384e-001	8.994275e-001	9.066977e-001	9.139382e-001	9.212271e-001	9.285635e-001	9.359902e-001	9.435833e-001	9.514131e-001	9.595112e-001	9.679773e-001	9.768597e-001	9.862467e-001	9.962121e-001	1.006858e+000	1.018335e+000	1.030773e+000	1.044386e+000	1.059499e+000	1.076381e+000	1.095565e+000	1.117768e+000	1.143667e+000	1.174467e+000	1.211001e+000	1.252773e+000	1.295424e+000	1.338610e+000	1.350788e+000	1.343972e+000	1.338863e+000	1.305994e+000	1.233011e+000	1.161080e+000	1.087536e+000	1.018759e+000	9.592633e-001	9.099913e-001	8.699020e-001	8.376280e-001	8.114745e-001	7.899896e-001	7.723281e-001	7.575132e-001	7.450229e-001	7.346849e-001	7.261111e-001	7.188196e-001	7.124210e-001	7.065438e-001	7.010399e-001	6.961553e-001	6.922783e-001	6.893960e-001	6.871529e-001	6.851835e-001	6.835834e-001	6.824133e-001	6.815823e-001	6.809779e-001	6.807504e-001	6.811517e-001	6.823560e-001	6.843148e-001	6.868579e-001	6.897777e-001	6.929096e-001	6.961130e-001	6.992695e-001	7.021988e-001	7.047237e-001	7.066954e-001	7.080459e-001	7.087432e-001	7.087233e-001	7.079428e-001	7.062895e-001	7.037299e-001	7.001398e-001	6.955534e-001	6.897801e-001	6.827670e-001	6.745211e-001	6.654778e-001	6.560397e-001	6.439074e-001	6.259795e-001	6.059526e-001	6.277976e-001	7.702304e-001	9.488896e-001	9.756717e-001	9.631344e-001	9.616372e-001	9.703821e-001	9.797822e-001	9.890110e-001	9.987541e-001	1.008262e+000	1.016839e+000	1.023981e+000	1.029359e+000	1.032645e+000	1.033607e+000	1.032225e+000	1.028562e+000	1.022977e+000	1.016032e+000	1.008634e+000	1.001796e+000	9.965991e-001	9.940367e-001	9.949655e-001	9.999130e-001	1.009123e+000	1.022321e+000	1.038661e+000	1.056679e+000	1.074629e+000	1.091065e+000	1.105012e+000	1.116090e+000	1.124527e+000	1.131198e+000	1.136970e+000	1.143485e+000	1.151358e+000	1.162453e+000	1.175203e+000	1.171218e+000	9.996070e-001	9.997789e-001	9.997215e-001	9.995977e-001	9.994798e-001	9.993394e-001	9.991734e-001	9.989677e-001	9.987462e-001	9.985847e-001	9.984874e-001	9.985454e-001	9.987253e-001	9.990924e-001	9.994081e-001	9.996759e-001	9.998353e-001	9.999424e-001	1.000019e+000	1.000058e+000	1.000086e+000	1.000102e+000	1.000115e+000	1.000127e+000	1.000137e+000	1.000149e+000	1.000167e+000	1.000189e+000	1.000220e+000	1.000267e+000	1.000320e+000	1.000410e+000	1.000501e+000	1.000659e+000	1.000813e+000	1.001013e+000	1.001234e+000	1.001343e+000	1.001392e+000	1.001305e+000	1.001198e+000	1.001029e+000	1.000871e+000	1.000713e+000	1.000566e+000	1.000406e+000	1.000288e+000	1.000229e+000	9.998870e-001	9.994755e-001	1.000826e+000	9.926040e-001	7.112880e-001	9.760128e-001	7.810088e-001	1.180220e+000	1.172332e+000	1.047319e+000	1.010024e+000	1.282710e+000	1.038206e+000	6.596357e-001	1.151623e+000	1.143689e+000	6.456865e-001	1.025464e+000	1.339514e+000	1.132093e+000	1.115164e+000	1.322231e+000	9.832861e-001	1.050716e+000	1.051792e+000	7.048186e-001	1.043610e+000	6.857562e-001	1.030712e+000	9.865135e-001	1.012370e+000	9.807594e-001	9.875502e-001	1.342917e+000	9.286241e-001	9.551792e-001	1.104806e+000	7.565052e-001	1.037838e+000	9.508259e-001	1.091812e+000	1.026644e+000	9.161621e-001	1.000909e+000	1.043265e+000	1.163803e+000	9.548612e-001	7.452363e-001	9.382880e-001	7.239121e-001	8.756171e-001	7.654631e-001	9.387025e-001	1.067038e+000	7.723092e-001	1.023865e+000	7.643688e-001	8.181650e-001	7.995344e-001	1.051194e+000	8.363698e-001	9.390356e-001	9.235626e-001	8.939333e-001	9.715885e-001	9.545022e-001	9.330905e-001	9.088089e-001	9.644403e-001	1.022227e+000	1.084763e+000	1.157778e+000	1.184082e+000	8.976387e-001	9.721404e-001	9.308151e-001	1.062150e+000	1.227079e+000	1.047906e+000	8.622268e-001	9.299841e-001	1.032203e+000	1.050198e+000	9.464884e-001	8.784273e-001	9.439016e-001	1.001542e+000	1.011910e+000	1.218086e+000	1.127655e+000	7.901831e-001	9.014349e-001	1.209091e+000	8.704189e-001	9.628598e-001	8.273419e-001	8.538326e-001	7.303384e-001	1.018014e+000	1.326571e+000	1.291827e+000	6.861091e-001	1.342754e+000	8.351329e-001	7.606030e-001	7.914667e-001	7.042281e-001	7.112279e-001	1.145562e+000	6.930979e-001	7.066113e-001	1.083245e+000	1.052707e+000	1.015440e+000	7.032260e-001	7.105940e-001	7.091581e-001	1.003063e+000	1.005424e+000	7.305249e-001	1.096542e+000	1.037551e+000	1.013645e+000	7.160568e-001	7.488500e-001	6.927941e-001	6.875823e-001	6.889281e-001	6.989332e-001	7.090791e-001	7.105043e-001	6.935248e-001	6.998670e-001	6.163073e-001	6.859168e-001	6.844306e-001	9.083652e-001	6.690851e-001	9.881236e-001	9.711575e-001	1.020445e+000	1.005330e+000	1.031772e+000	1.029871e+000	1.009910e+000	1.026094e+000	1.024178e+000	1.002873e+000	1.068365e+000	1.029772e+000	1.021093e+000	1.026022e+000	1.031807e+000	9.966130e-001	1.013467e+000	9.656090e-001	9.799400e-001	6.661683e-001	9.919011e-001	6.780055e-001	6.240054e-001	6.849197e-001	6.846895e-001	6.910195e-001	6.872779e-001	7.746697e-001	6.964666e-001	9.384002e-001	8.114232e-001	8.862697e-001	1.102293e+000	9.864588e-001	1.051994e+000	8.088902e-001	9.375777e-001	1.166177e+000	8.635158e-001	1.041470e+000	7.230063e-001	7.389802e-001	6.899930e-001	7.097042e-001	1.107780e+000	1.116982e+000	6.958180e-001	1.124613e+000	1.131329e+000	7.019868e-001	7.072405e-001	1.006565e+000	1.185343e+000	1.155181e+000	1.164910e+000	9.737616e-001	1.036897e+000	1.138067e+000	6.987148e-001	1.255236e+000	1.153977e+000	9.904730e-001	9.310840e-001	8.452145e-001	7.540009e-001	1.257016e+000	1.301169e+000	8.477384e-001	1.012964e+000	9.843758e-001	1.182177e+000	6.719157e-001	1.005279e+000	1.044823e+000	1.129555e+000	8.212774e-001	1.037552e+000	1.045196e+000	9.752306e-001	1.301208e+000	8.885622e-001	1.130645e+000	9.879580e-001	9.262934e-001	1.020152e+000	9.885825e-001	7.470156e-001	9.846086e-001	7.854258e-001	1.007265e+000	1.046793e+000	1.050290e+000	9.195399e-001	9.818486e-001	1.030646e+000	7.201600e-001	9.845285e-001	6.979902e-001	1.024737e+000	1.117347e+000	7.046718e-001	7.017918e-001	1.038002e+000	1.020835e+000	1.124448e+000	1.050343e+000	1.099670e+000	6.893589e-001	7.018226e-001	6.892542e-001	7.271814e-001	9.971670e-001	8.962932e-001	1.001811e+000	7.048910e-001	7.937428e-001	1.076532e+000	1.131260e+000	1.016785e+000	9.187992e-001	1.198307e+000	1.145907e+000	1.138190e+000	1.102429e+000	1.209155e+000	1.211685e+000	1.336044e+000	1.334832e+000	1.108777e+000	1.208069e+000	1.005022e+000	1.162084e+000	1.147774e+000	7.137057e-001	9.349579e-001	1.115902e+000	1.024860e+000	6.600785e-001	1.139854e+000	1.325443e+000	7.604227e-001	7.128813e-001	1.042064e+000	6.936964e-001	1.031842e+000	1.016713e+000	9.944993e-001	9.964880e-001	9.713904e-001	9.505196e-001	1.071826e+000	9.631229e-001	1.018707e+000	1.097804e+000	9.417008e-001	1.037533e+000	1.041687e+000	1.154828e+000	7.346243e-001	7.522985e-001	8.336043e-001	1.089385e+000	7.773180e-001	7.694285e-001	8.122445e-001	1.041636e+000	9.590685e-001	9.505416e-001	9.338991e-001	9.663262e-001	9.346650e-001	9.618972e-001	1.048575e+000	1.075240e+000	1.026637e+000	1.032547e+000	9.578510e-001	9.496468e-001	9.426610e-001	9.526193e-001	1.028491e+000	1.016346e+000	1.154947e+000	8.031981e-001	7.941863e-001	9.113853e-001	9.038889e-001	8.807175e-001	8.727333e-001	8.390516e-001	8.302114e-001	8.645902e-001	1.327837e+000	1.243317e+000	8.117634e-001	1.109207e+000	6.959555e-001	7.062110e-001	7.095968e-001	7.118665e-001	1.088772e+000	1.063510e+000	1.011251e+000	7.133073e-001	7.138663e-001	7.114927e-001	1.011290e+000	1.027357e+000	7.652252e-001	7.783350e-001	6.901881e-001	6.916568e-001	7.011055e-001	7.094476e-001	7.143728e-001	1.017088e+000	9.878329e-001	9.809951e-001	1.010452e+000	1.029567e+000	1.013376e+000	1.027973e+000	1.029999e+000	1.026926e+000	1.022737e+000	1.002849e+000	9.950077e-001	9.738746e-001	9.714641e-001	8.196787e-001	6.433788e-001	6.812361e-001	6.891296e-001	6.229356e-001	6.442285e-001	6.898378e-001	6.911713e-001	6.930523e-001	6.954023e-001	9.581612e-001	8.329603e-001	8.577643e-001	1.047573e+000	1.047060e+000	9.199791e-001	9.404018e-001	1.156909e+000	8.863864e-001	7.352419e-001	7.441429e-001	6.989367e-001	6.961685e-001	7.095977e-001	7.072838e-001	1.019155e+000	1.013769e+000	9.706906e-001	9.797018e-001	1.055985e+000	1.274557e+000	8.562595e-001	1.303635e+000	7.908686e-001	8.509787e-001	1.041814e+000	9.388302e-001	9.843697e-001	1.117774e+000	1.110616e+000	1.061116e+000	1.150518e+000	1.124905e+000	1.154656e+000	1.166715e+000	1.152314e+000	1.189606e+000	1.111613e+000	1.306896e+000	9.791415e-001	9.751976e-001	1.128358e+000	6.840570e-001	1.171501e+000	1.205142e+000	1.015212e+000	1.258918e+000	1.021525e+000	1.131988e+000	1.026542e+000	1.179032e+000	8.251900e-001	1.032131e+000	1.008473e+000	1.137761e+000	1.154657e+000	1.093401e+000	7.051558e-001	1.039915e+000	9.419529e-001	1.130729e+000	7.098549e-001	6.958363e-001	7.047954e-001	7.094779e-001	7.821543e-001	1.161579e+000	1.279813e+000	1.233761e+000	9.755914e-001	1.276417e+000	1.017291e+000	9.886003e-001	1.327437e+000	9.293579e-001	7.514997e-001	1.092943e+000	1.058418e+000	1.028968e+000	1.014121e+000	9.887696e-001	1.102611e+000	1.050058e+000	1.021960e+000	1.024671e+000	7.021158e-001	6.974614e-001	6.945984e-001	7.393790e-001	9.933458e-001	1.001028e+000	8.990943e-001	1.015605e+000	7.137506e-001	1.083326e+000	1.137435e+000	1.103913e+000	1.195206e+000	1.232088e+000	1.316073e+000	1.075745e+000	1.183244e+000	1.175489e+000	1.041920e+000	1.117197e+000	6.736848e-001	7.642734e-001	7.158305e-001	1.039982e+000	1.036563e+000	1.019991e+000	1.012299e+000	1.009251e+000	9.986427e-001	1.003745e+000	9.942876e-001	9.763208e-001	9.937935e-001	1.103206e+000	1.036337e+000	1.039408e+000	1.144829e+000	7.509771e-001	7.992896e-001	7.830466e-001	7.748335e-001	1.060252e+000	9.687234e-001	9.681582e-001	9.449487e-001	9.370476e-001	9.371001e-001	9.421242e-001	1.065090e+000	1.085664e+000	1.027175e+000	1.032034e+000	9.701037e-001	9.613740e-001	9.530621e-001	9.507227e-001	9.598583e-001	1.046159e+000	1.032955e+000	1.020615e+000	8.164759e-001	8.076866e-001	7.990722e-001	9.218850e-001	9.143398e-001	9.067608e-001	8.913890e-001	8.835739e-001	8.424739e-001	8.338776e-001	8.756510e-001	8.320814e-001	7.131174e-001	7.153732e-001	1.072380e+000	7.166384e-001	7.171189e-001	7.167980e-001	7.143004e-001	1.018309e+000	7.966193e-001	8.132161e-001	6.947890e-001	6.944241e-001	7.190473e-001	7.255290e-001	7.321987e-001	9.883874e-001	1.018218e+000	1.019681e+000	1.027041e+000	1.028863e+000	1.029514e+000	1.027192e+000	1.023939e+000	1.019629e+000	1.007754e+000	1.000968e+000	9.941575e-001	9.818994e-001	9.760047e-001	9.788264e-001	7.470965e-001	6.924888e-001	6.996646e-001	6.497564e-001	6.452995e-001	6.595707e-001	6.954456e-001	6.968579e-001	6.991687e-001	7.021043e-001	7.056972e-001	8.537853e-001	8.789811e-001	1.042954e+000	1.043130e+000	1.042141e+000	8.889961e-001	9.344755e-001	9.077270e-001	9.396062e-001	7.481236e-001	7.583413e-001	7.695825e-001	6.996170e-001	7.123137e-001	7.099834e-001	7.074131e-001	1.031309e+000	1.024712e+000	1.020371e+000	9.682269e-001	9.767444e-001	9.850967e-001	8.675688e-001	8.593448e-001	1.282335e+000	9.830021e-001	1.130244e+000	1.096790e+000	9.416508e-001	1.283078e+000	1.158504e+000	9.883475e-001	9.840250e-001	1.078424e+000	1.117961e+000	7.169304e-001	1.260470e+000	1.026313e+000	1.196049e+000	1.060073e+000	1.124212e+000	1.213773e+000	8.767887e-001	1.180463e+000	1.169012e+000	1.186048e+000	1.038938e+000	9.331780e-001	1.112850e+000	7.977959e-001	9.926337e-001	7.711905e-001	8.553025e-001	1.104555e+000	6.964133e-001	1.050803e+000	1.042407e+000	1.010852e+000	7.245321e-001	7.004679e-001	1.117894e+000	8.148660e-001	1.026988e+000	1.143748e+000	1.111631e+000	1.143071e+000	1.058471e+000	1.131451e+000	1.011002e+000	1.219324e+000	1.016629e+000	1.022635e+000	1.152025e+000	1.127406e+000	1.173745e+000	1.027056e+000	7.130614e-001	7.036075e-001	1.251613e+000	1.063921e+000	9.760933e-001	1.025551e+000	7.057215e-001	7.020070e-001	7.008288e-001	9.974632e-001	1.004183e+000	1.088235e+000	1.102454e+000	1.142317e+000	1.242067e+000	1.295962e+000	1.094955e+000	1.039206e+000	1.106352e+000	6.840983e-001	1.034704e+000	1.031497e+000	1.021915e+000	1.015876e+000	1.013195e+000	1.002621e+000	1.009259e+000	1.002066e+000	9.948622e-001	1.002256e+000	1.019773e+000	1.034722e+000	1.036412e+000	1.135766e+000	7.657558e-001	7.896901e-001	7.896944e-001	7.811182e-001	9.837308e-001	9.896142e-001	9.486333e-001	9.404658e-001	9.445331e-001	1.076410e+000	1.092555e+000	1.026563e+000	1.031469e+000	9.739128e-001	9.652181e-001	9.568939e-001	9.490837e-001	9.575707e-001	1.063926e+000	1.049880e+000	1.036560e+000	1.024382e+000	8.304052e-001	8.219894e-001	8.137601e-001	8.055614e-001	9.255625e-001	9.180012e-001	9.102884e-001	9.027246e-001	8.950292e-001	8.387395e-001	8.470648e-001	8.873420e-001	7.190966e-001	1.079179e+000	1.069638e+000	7.203367e-001	7.206319e-001	7.202258e-001	7.190735e-001	7.173810e-001	8.328092e-001	8.529240e-001	7.005203e-001	7.014155e-001	7.303456e-001	7.373477e-001	7.453730e-001	7.536744e-001	1.024432e+000	1.023895e+000	1.024480e+000	1.026929e+000	1.027905e+000	1.028514e+000	1.027438e+000	1.024617e+000	1.020228e+000	1.016703e+000	1.005165e+000	9.983220e-001	9.920470e-001	9.856941e-001	9.801415e-001	9.819341e-001	9.898523e-001	7.091677e-001	7.024225e-001	7.297206e-001	6.699293e-001	6.689979e-001	6.708067e-001	7.024697e-001	7.043744e-001	7.064567e-001	7.098419e-001	7.137403e-001	7.188132e-001	8.744714e-001	8.988794e-001	1.038542e+000	1.038616e+000	1.037167e+000	8.599109e-001	9.187424e-001	9.385626e-001	9.271097e-001	9.577525e-001	9.903283e-001	7.625564e-001	7.732812e-001	7.860604e-001	7.997466e-001	7.152661e-001	7.128929e-001	7.103944e-001	7.079137e-001	1.026414e+000	1.035328e+000	1.029989e+000	9.657984e-001	9.741958e-001	9.822448e-001	9.899727e-001	8.794508e-001	8.715068e-001	8.634443e-001	1.148556e+000	1.126158e+000	1.055302e+000	1.164475e+000	1.167976e+000	1.019695e+000	9.871411e-001	1.187414e+000	1.092045e+000	1.226813e+000	1.095864e+000	9.380647e-001	7.433671e-001	1.068581e+000	1.168325e+000	1.255763e+000	1.305520e+000	1.306710e+000	1.295552e+000	1.243173e+000	1.137782e+000	7.075708e-001	1.070451e+000	1.118500e+000	9.978418e-001	1.034325e+000	8.047115e-001	1.117838e+000	1.030709e+000	1.045306e+000	7.093566e-001	7.182991e-001	8.802900e-001	1.004031e+000	7.230956e-001	9.473800e-001	7.086137e-001	1.112094e+000	9.967068e-001	1.156090e+000	1.099223e+000	1.299903e+000	1.180769e+000	1.171869e+000	9.951494e-001	1.080969e+000	1.261024e+000	1.035262e+000	1.207249e+000	1.059852e+000	1.197404e+000	1.166527e+000	1.173828e+000	1.130277e+000	8.515761e-001	8.609141e-001	1.105835e+000	6.961298e-001	1.052155e+000	1.108632e+000	1.009468e+000	1.228646e+000	7.060296e-001	7.062655e-001	7.055916e-001	9.972645e-001	1.101775e+000	1.135499e+000	1.273354e+000	1.113189e+000	1.030221e+000	1.027381e+000	1.023180e+000	1.018567e+000	1.006657e+000	1.017328e+000	1.013767e+000	1.007904e+000	1.003575e+000	9.987956e-001	1.024553e+000	1.039686e+000	1.031194e+000	1.126815e+000	7.822173e-001	7.941442e-001	7.956610e-001	7.910352e-001	1.002048e+000	1.011296e+000	9.520933e-001	9.440006e-001	1.084676e+000	1.097480e+000	1.026384e+000	9.776858e-001	9.686751e-001	9.620522e-001	9.540925e-001	1.066851e+000	1.053163e+000	1.040066e+000	1.028498e+000	8.450290e-001	8.356076e-001	8.291142e-001	8.195462e-001	8.136401e-001	9.292937e-001	9.227275e-001	9.137647e-001	9.073777e-001	8.986139e-001	1.084307e+000	1.076301e+000	1.068059e+000	7.238213e-001	7.244234e-001	7.234911e-001	7.224018e-001	7.202600e-001	8.526825e-001	8.733680e-001	7.074137e-001	7.076836e-001	7.482184e-001	7.593103e-001	7.693562e-001	1.029280e+000	1.027565e+000	1.027675e+000	1.027478e+000	1.027697e+000	1.027831e+000	1.026801e+000	1.024837e+000	1.020831e+000	1.014650e+000	9.903587e-001	9.856691e-001	9.924033e-001	7.123046e-001	6.851783e-001	7.108210e-001	7.117127e-001	7.161310e-001	7.178131e-001	7.241453e-001	7.293004e-001	7.360017e-001	8.954349e-001	9.184901e-001	1.035010e+000	1.034892e+000	1.032381e+000	8.418257e-001	9.143688e-001	9.446735e-001	9.741140e-001	1.003779e+000	7.793009e-001	7.904064e-001	8.038333e-001	8.198610e-001	8.356932e-001	7.180965e-001	7.154532e-001	7.132214e-001	7.106850e-001	1.039507e+000	1.034678e+000	9.671429e-001	9.831032e-001	8.921551e-001	8.831510e-001	8.766065e-001	8.675062e-001	1.164589e+000	1.149616e+000	1.178437e+000	1.270066e+000	1.179205e+000	1.078959e+000	1.106779e+000	1.208740e+000	1.066993e+000	1.140441e+000	1.101006e+000	1.253872e+000	1.096295e+000	1.161239e+000	7.111521e-001	1.164395e+000	1.100408e+000	1.182388e+000	1.144194e+000	1.066858e+000	9.358854e-001	1.100900e+000	8.614987e-001	1.012457e+000	1.006224e+000	9.756899e-001	9.908530e-001	9.379891e-001	1.226349e+000	8.085993e-001	1.011286e+000	1.001172e+000	7.678947e-001	1.087926e+000	1.035470e+000	1.232660e+000	1.071513e+000	1.054372e+000	1.159551e+000	1.094444e+000	1.302733e+000	1.241168e+000	1.110564e+000	1.020443e+000	7.258722e-001	7.273942e-001	1.112255e+000	1.167684e+000	1.128504e+000	1.278295e+000	1.174931e+000	1.082719e+000	1.211853e+000	1.195460e+000	7.094027e-001	1.111753e+000	1.060382e+000	1.053557e+000	7.196780e-001	7.106556e-001	7.125079e-001	1.012679e+000	1.129087e+000	1.156864e+000	1.128337e+000	1.025383e+000	1.019058e+000	1.021142e+000	1.011869e+000	1.007506e+000	1.041838e+000	1.119053e+000	8.039770e-001	1.019963e+000	1.030025e+000	9.520670e-001	1.090365e+000	1.025695e+000	1.029265e+000	9.777861e-001	9.654786e-001	9.528325e-001	1.069256e+000	1.055185e+000	1.042709e+000	1.033894e+000	8.462870e-001	8.314293e-001	8.202552e-001	9.224247e-001	9.071620e-001	1.081141e+000	1.074185e+000	7.259797e-001	7.218019e-001	8.928641e-001	7.166875e-001	7.854718e-001	1.016112e+000	1.030924e+000	1.028557e+000	1.026909e+000	1.024268e+000	1.021013e+000	1.008342e+000	9.954445e-001	9.852720e-001	9.899348e-001	9.590408e-001	8.238206e-001	7.172416e-001	7.006391e-001	7.229748e-001	7.313601e-001	7.414708e-001	7.459585e-001	7.567113e-001	9.156219e-001	9.377622e-001	1.031250e+000	1.031327e+000	1.028661e+000	8.300760e-001	8.880689e-001	9.611576e-001	9.879461e-001	1.015566e+000	1.042821e+000	7.979372e-001	8.092467e-001	8.226214e-001	8.392722e-001	8.587071e-001	8.709372e-001	7.167571e-001	7.133220e-001	1.047328e+000	1.042352e+000	9.616395e-001	9.902432e-001	1.002419e+000	8.919894e-001	8.767671e-001	1.117168e+000	1.164744e+000	1.160223e+000	1.134510e+000	1.052128e+000	1.107227e+000	1.161814e+000	1.134934e+000	1.184195e+000	1.139656e+000	1.147175e+000	1.125740e+000	1.123328e+000	1.212057e+000	1.235242e+000	1.078551e+000	1.020176e+000	7.150157e-001	1.124118e+000	1.014608e+000	1.110056e+000	9.015269e-001	1.099035e+000	1.169569e+000	8.272878e-001	1.026813e+000	9.832283e-001	9.453610e-001	1.075183e+000	1.085030e+000	1.096137e+000	1.084084e+000	1.159579e+000	1.096173e+000	1.101532e+000	1.066506e+000	7.185352e-001	7.148611e-001	1.005974e+000	1.024570e+000	1.145671e+000	1.150363e+000	1.280932e+000	1.064922e+000	1.072363e+000	1.174374e+000	1.094577e+000	1.191379e+000	1.154315e+000	9.172223e-001	1.223204e+000	1.016697e+000	1.004641e+000	1.090541e+000	1.247911e+000	1.054645e+000	1.103442e+000	1.014268e+000	1.257028e+000	1.174464e+000	1.036350e+000	1.210839e+000	1.197996e+000	7.