# vtk DataFile Version 3.0
vtk output
ASCII
DATASET UNSTRUCTURED_GRID
POINTS 5233 float
9.997500e-001	-3.632897e-005	0.0	9.990000e-001	-1.452538e-004	0.0	9.977600e-001	-3.251112e-004	0.0	9.960200e-001	-5.769984e-004	0.0	9.937800e-001	-9.004365e-004	0.0	9.910500e-001	-1.293364e-003	0.0	9.878400e-001	-1.753610e-003	0.0	9.841300e-001	-2.283177e-003	0.0	9.799500e-001	-2.876826e-003	0.0	9.752800e-001	-3.536324e-003	0.0	9.701500e-001	-4.256269e-003	0.0	9.645400e-001	-5.038225e-003	0.0	9.584700e-001	-5.878077e-003	0.0	9.519400e-001	-6.774429e-003	0.0	9.449600e-001	-7.724467e-003	0.0	9.375400e-001	-8.725349e-003	0.0	9.296900e-001	-9.774221e-003	0.0	9.214000e-001	-1.087086e-002	0.0	9.127000e-001	-1.200973e-002	0.0	9.035800e-001	-1.319056e-002	0.0	8.940600e-001	-1.440916e-002	0.0	8.841500e-001	-1.566269e-002	0.0	8.738500e-001	-1.694956e-002	0.0	8.631800e-001	-1.826569e-002	0.0	8.521600e-001	-1.960709e-002	0.0	8.407700e-001	-2.097463e-002	0.0	8.290500e-001	-2.236196e-002	0.0	8.170100e-001	-2.376642e-002	0.0	8.046400e-001	-2.518764e-002	0.0	7.919700e-001	-2.662063e-002	0.0	7.790100e-001	-2.806277e-002	0.0	7.657800e-001	-2.951034e-002	0.0	7.522800e-001	-3.096181e-002	0.0	7.385200e-001	-3.241453e-002	0.0	7.245300e-001	-3.386377e-002	0.0	7.103200e-001	-3.530689e-002	0.0	6.958900e-001	-3.674225e-002	0.0	6.812700e-001	-3.816515e-002	0.0	6.664700e-001	-3.957289e-002	0.0	6.515000e-001	-4.096270e-002	0.0	6.363800e-001	-4.233084e-002	0.0	6.211300e-001	-4.367359e-002	0.0	6.057600e-001	-4.498807e-002	0.0	5.902800e-001	-4.627133e-002	0.0	5.747100e-001	-4.751951e-002	0.0	5.590600e-001	-4.872956e-002	0.0	5.433600e-001	-4.989684e-002	0.0	5.276100e-001	-5.101898e-002	0.0	5.118400e-001	-5.209138e-002	0.0	4.960500e-001	-5.311154e-002	0.0	4.802700e-001	-5.407492e-002	0.0	4.645100e-001	-5.497836e-002	0.0	4.487800e-001	-5.581860e-002	0.0	4.331100e-001	-5.659142e-002	0.0	4.175000e-001	-5.729417e-002	0.0	4.019700e-001	-5.792324e-002	0.0	3.865400e-001	-5.847521e-002	0.0	3.712300e-001	-5.894684e-002	0.0	3.560400e-001	-5.933562e-002	0.0	3.409900e-001	-5.963848e-002	0.0	3.261100e-001	-5.985254e-002	0.0	3.114000e-001	-5.997565e-002	0.0	2.968700e-001	-6.000550e-002	0.0	2.825500e-001	-5.994005e-002	0.0	2.684500e-001	-5.977766e-002	0.0	2.545700e-001	-5.951658e-002	0.0	2.409400e-001	-5.915586e-002	0.0	2.275700e-001	-5.869457e-002	0.0	2.144700e-001	-5.813197e-002	0.0	2.016600e-001	-5.746811e-002	0.0	1.891400e-001	-5.670228e-002	0.0	1.769300e-001	-5.583514e-002	0.0	1.650400e-001	-5.486709e-002	0.0	1.534900e-001	-5.379978e-002	0.0	1.422900e-001	-5.263443e-002	0.0	1.314400e-001	-5.137134e-002	0.0	1.209500e-001	-5.001187e-002	0.0	1.108500e-001	-4.856067e-002	0.0	1.011300e-001	-4.701715e-002	0.0	9.181000e-002	-4.538527e-002	0.0	8.290000e-002	-4.366791e-002	0.0	7.440000e-002	-4.186608e-002	0.0	6.633000e-002	-3.998514e-002	0.0	5.869000e-002	-3.802636e-002	0.0	5.149000e-002	-3.599338e-002	0.0	4.474000e-002	-3.389028e-002	0.0	3.844000e-002	-3.171811e-002	0.0	3.260000e-002	-2.948109e-002	0.0	2.723000e-002	-2.718420e-002	0.0	2.232000e-002	-2.482329e-002	0.0	1.790000e-002	-2.241365e-002	0.0	1.395000e-002	-1.994492e-002	0.0	1.049000e-002	-1.742916e-002	0.0	7.520000e-003	-1.486756e-002	0.0	5.040000e-003	-1.226032e-002	0.0	3.050000e-003	-9.605565e-003	0.0	1.560000e-003	-6.917518e-003	0.0	5.600000e-004	-4.173160e-003	0.0	6.000000e-005	-1.375330e-003	0.0	0.000000e+000	0.000000e+000	0.0	6.000000e-005	1.375330e-003	0.0	5.600000e-004	4.173160e-003	0.0	1.560000e-003	6.917518e-003	0.0	3.050000e-003	9.605565e-003	0.0	5.040000e-003	1.226032e-002	0.0	7.520000e-003	1.486756e-002	0.0	1.049000e-002	1.742916e-002	0.0	1.395000e-002	1.994492e-002	0.0	1.790000e-002	2.241365e-002	0.0	2.232000e-002	2.482329e-002	0.0	2.723000e-002	2.718420e-002	0.0	3.260000e-002	2.948109e-002	0.0	3.844000e-002	3.171811e-002	0.0	4.474000e-002	3.389028e-002	0.0	5.149000e-002	3.599338e-002	0.0	5.869000e-002	3.802636e-002	0.0	6.633000e-002	3.998514e-002	0.0	7.440000e-002	4.186608e-002	0.0	8.290000e-002	4.366791e-002	0.0	9.181000e-002	4.538527e-002	0.0	1.011300e-001	4.701715e-002	0.0	1.108500e-001	4.856067e-002	0.0	1.209500e-001	5.001187e-002	0.0	1.314400e-001	5.137134e-002	0.0	1.422900e-001	5.263443e-002	0.0	1.534900e-001	5.379978e-002	0.0	1.650400e-001	5.486709e-002	0.0	1.769300e-001	5.583514e-002	0.0	1.891400e-001	5.670228e-002	0.0	2.016600e-001	5.746811e-002	0.0	2.144700e-001	5.813197e-002	0.0	2.275700e-001	5.869457e-002	0.0	2.409400e-001	5.915586e-002	0.0	2.545700e-001	5.951658e-002	0.0	2.684500e-001	5.977766e-002	0.0	2.825500e-001	5.994005e-002	0.0	2.968700e-001	6.000550e-002	0.0	3.114000e-001	5.997565e-002	0.0	3.261100e-001	5.985254e-002	0.0	3.409900e-001	5.963848e-002	0.0	3.560400e-001	5.933562e-002	0.0	3.712300e-001	5.894684e-002	0.0	3.865400e-001	5.847521e-002	0.0	4.019700e-001	5.792324e-002	0.0	4.175000e-001	5.729417e-002	0.0	4.331100e-001	5.659142e-002	0.0	4.487800e-001	5.581860e-002	0.0	4.645100e-001	5.497836e-002	0.0	4.802700e-001	5.407492e-002	0.0	4.960500e-001	5.311154e-002	0.0	5.118400e-001	5.209138e-002	0.0	5.276100e-001	5.101898e-002	0.0	5.433600e-001	4.989684e-002	0.0	5.590600e-001	4.872956e-002	0.0	5.747100e-001	4.751951e-002	0.0	5.902800e-001	4.627133e-002	0.0	6.057600e-001	4.498807e-002	0.0	6.211300e-001	4.367359e-002	0.0	6.363800e-001	4.233084e-002	0.0	6.515000e-001	4.096270e-002	0.0	6.664700e-001	3.957289e-002	0.0	6.812700e-001	3.816515e-002	0.0	6.958900e-001	3.674225e-002	0.0	7.103200e-001	3.530689e-002	0.0	7.245300e-001	3.386377e-002	0.0	7.385200e-001	3.241453e-002	0.0	7.522800e-001	3.096181e-002	0.0	7.657800e-001	2.951034e-002	0.0	7.790100e-001	2.806277e-002	0.0	7.919700e-001	2.662063e-002	0.0	8.046400e-001	2.518764e-002	0.0	8.170100e-001	2.376642e-002	0.0	8.290500e-001	2.236196e-002	0.0	8.407700e-001	2.097463e-002	0.0	8.521600e-001	1.960709e-002	0.0	8.631800e-001	1.826569e-002	0.0	8.738500e-001	1.694956e-002	0.0	8.841500e-001	1.566269e-002	0.0	8.940600e-001	1.440916e-002	0.0	9.035800e-001	1.319056e-002	0.0	9.127000e-001	1.200973e-002	0.0	9.214000e-001	1.087086e-002	0.0	9.296900e-001	9.774221e-003	0.0	9.375400e-001	8.725349e-003	0.0	9.449600e-001	7.724467e-003	0.0	9.519400e-001	6.774429e-003	0.0	9.584700e-001	5.878077e-003	0.0	9.645400e-001	5.038225e-003	0.0	9.701500e-001	4.256269e-003	0.0	9.752800e-001	3.536324e-003	0.0	9.799500e-001	2.876826e-003	0.0	9.841300e-001	2.283177e-003	0.0	9.878400e-001	1.753610e-003	0.0	9.910500e-001	1.293364e-003	0.0	9.937800e-001	9.004365e-004	0.0	9.960200e-001	5.769984e-004	0.0	9.977600e-001	3.251112e-004	0.0	9.990000e-001	1.452538e-004	0.0	9.997500e-001	3.632897e-005	0.0	1.000000e+000	0.000000e+000	0.0	1.984229e+001	2.506660e+000	0.0	1.937166e+001	4.973800e+000	0.0	1.859553e+001	7.362490e+000	0.0	1.752613e+001	9.635070e+000	0.0	1.618034e+001	1.175571e+001	0.0	1.457937e+001	1.369094e+001	0.0	1.274848e+001	1.541027e+001	0.0	1.071654e+001	1.688656e+001	0.0	8.515590e+000	1.809654e+001	0.0	6.180340e+000	1.902113e+001	0.0	3.747630e+000	1.964575e+001	0.0	1.255810e+000	1.996053e+001	0.0	-1.255810e+000	1.996053e+001	0.0	-3.747630e+000	1.964574e+001	0.0	-6.180340e+000	1.902113e+001	0.0	-8.515590e+000	1.809654e+001	0.0	-1.071654e+001	1.688656e+001	0.0	-1.274848e+001	1.541026e+001	0.0	-1.457937e+001	1.369094e+001	0.0	-1.618034e+001	1.175570e+001	0.0	-1.752613e+001	9.635070e+000	0.0	-1.859553e+001	7.362490e+000	0.0	-1.937166e+001	4.973800e+000	0.0	-1.984229e+001	2.506660e+000	0.0	-2.000000e+001	0.000000e+000	0.0	-1.984229e+001	-2.506670e+000	0.0	-1.937166e+001	-4.973800e+000	0.0	-1.859553e+001	-7.362490e+000	0.0	-1.752613e+001	-9.635080e+000	0.0	-1.618034e+001	-1.175571e+001	0.0	-1.457937e+001	-1.369094e+001	0.0	-1.274848e+001	-1.541027e+001	0.0	-1.071653e+001	-1.688656e+001	0.0	-8.515580e+000	-1.809654e+001	0.0	-6.180340e+000	-1.902113e+001	0.0	-3.747620e+000	-1.964575e+001	0.0	-1.255810e+000	-1.996053e+001	0.0	1.255810e+000	-1.996053e+001	0.0	3.747630e+000	-1.964574e+001	0.0	6.180340e+000	-1.902113e+001	0.0	8.515590e+000	-1.809654e+001	0.0	1.071654e+001	-1.688656e+001	0.0	1.274848e+001	-1.541026e+001	0.0	1.457937e+001	-1.369094e+001	0.0	1.618034e+001	-1.175570e+001	0.0	1.752614e+001	-9.635070e+000	0.0	1.859553e+001	-7.362490e+000	0.0	1.937166e+001	-4.973790e+000	0.0	1.984229e+001	-2.506660e+000	0.0	2.000000e+001	0.000000e+000	0.0	6.071847e-002	-4.599300e-002	0.0	6.602584e-001	-5.397924e-002	0.0	4.259462e-001	7.123173e-002	0.0	6.898893e-001	5.084802e-002	0.0	3.793152e-001	-7.273116e-002	0.0	9.994604e-001	-7.202256e-004	0.0	9.985440e-001	-1.312423e-003	0.0	7.737237e-001	-4.090969e-002	0.0	6.898893e-001	-5.084802e-002	0.0	-1.456769e-003	6.464601e-003	0.0	7.467285e-001	-4.428984e-002	0.0	5.836398e-001	6.115854e-002	0.0	9.927702e-001	-3.577733e-003	0.0	9.898650e-001	-4.450375e-003	0.0	5.991925e-001	5.980916e-002	0.0	7.187526e-001	-4.760665e-002	0.0	-1.597618e-003	7.671995e-004	0.0	9.864674e-001	-5.394793e-003	0.0	9.825871e-001	-6.398977e-003	0.0	-1.456774e-003	-6.464600e-003	0.0	6.451948e-001	-5.549610e-002	0.0	8.243215e-001	-3.409983e-002	0.0	7.996157e-001	-3.751255e-002	0.0	3.487901e-001	7.326090e-002	0.0	8.477112e-001	-3.071909e-002	0.0	2.474256e-001	7.182160e-002	0.0	8.697233e-001	-2.738134e-002	0.0	9.916188e-003	2.185203e-002	0.0	8.902508e-001	-2.411717e-002	0.0	7.700293e-002	-5.054436e-002	0.0	9.092206e-001	-2.095307e-002	0.0	-1.944578e-003	-3.190372e-003	0.0	9.421664e-001	-1.502079e-002	0.0	9.265514e-001	-1.791177e-002	0.0	1.789678e-002	-2.766280e-002	0.0	4.259462e-001	-7.123173e-002	0.0	8.588986e-001	-2.904064e-002	0.0	9.560213e-001	-1.230722e-002	0.0	9.782180e-001	-7.479396e-003	0.0	9.680592e-001	-9.783205e-003	0.0	1.582863e-001	-6.490557e-002	0.0	8.999374e-001	-2.252139e-002	0.0	7.603588e-001	-4.260503e-002	0.0	9.971186e-001	-2.046344e-003	0.0	5.991925e-001	-5.980916e-002	0.0	4.416505e-001	-7.055456e-002	0.0	5.365104e-001	-6.487405e-002	0.0	4.732224e-001	-6.895566e-002	0.0	5.048788e-001	-6.705339e-002	0.0	4.890394e-001	-6.804024e-002	0.0	1.249513e-001	-6.028257e-002	0.0	2.780447e-002	-3.325805e-002	0.0	3.947663e-001	-7.232395e-002	0.0	4.619013e-002	-4.112
[...]
POINT_DATA 5233
SCALARS Density float 1
LOOKUP_TABLE default
1.18610521583673e+00	1.16123801183058e+00	1.14536061381006e+00	1.13181143373143e+00	1.12007442659965e+00	1.11073554387891e+00	1.10453649407117e+00	1.10192166627301e+00	1.10178634017268e+00	1.10215143838491e+00	1.10096152548379e+00	1.09705473138323e+00	1.09075088172101e+00	1.08336728201058e+00	1.07570671864992e+00	1.06760608473644e+00	1.05863311416422e+00	1.04875809777734e+00	1.03844356924517e+00	1.02835135150292e+00	1.01897596485473e+00	1.01045149887839e+00	1.00260430291829e+00	9.95183074742082e-01	9.87909946442388e-01	9.80637340484212e-01	9.73280840686475e-01	9.65850382271554e-01	9.58418065529722e-01	9.51138977765046e-01	9.44112078979938e-01	9.37222376319497e-01	9.30057045923834e-01	9.22339631245660e-01	9.13732478948060e-01	9.05470124529099e-01	8.97873934402627e-01	8.91301885055111e-01	8.84731563846799e-01	8.72748325798635e-01	8.60482478438320e-01	8.51415640818899e-01	8.44893073664810e-01	8.40722976549935e-01	8.37062798721462e-01	8.34170832861905e-01	8.32921433163861e-01	8.32449123300572e-01	8.34796736902403e-01	8.41134870043635e-01	8.48316665950504e-01	8.53907201250816e-01	8.58719329479287e-01	8.65555811117585e-01	8.75966961433191e-01	8.87261128181600e-01	8.98806859802205e-01	9.08939869517549e-01	9.15502625907718e-01	9.16849701724411e-01	9.15542758888087e-01	9.13759401806787e-01	9.12067514953841e-01	9.10399531518520e-01	9.07968026087127e-01	9.04163967816749e-01	8.99987670838433e-01	8.95831497704362e-01	8.92243017099219e-01	8.89806267004430e-01	8.88169716146225e-01	8.86822784468328e-01	8.85411589298398e-01	8.83801936323827e-01	8.82335058640631e-01	8.81298023119721e-01	8.81026848932996e-01	8.81691872073684e-01	8.83215434486021e-01	8.85519824438690e-01	8.88677467817588e-01	8.92776122038835e-01	8.97996621478038e-01	9.04478550483641e-01	9.12449454725488e-01	9.22235103217616e-01	9.34107375914675e-01	9.48472173582980e-01	9.65902010211608e-01	9.86918057975744e-01	1.01240773759046e+00	1.04327548358991e+00	1.08009425024963e+00	1.12356252582039e+00	1.17343336689556e+00	1.22769291598925e+00	1.27997820451590e+00	1.33126431558097e+00	1.35009647627475e+00	1.34784531016557e+00	1.34665620175099e+00	1.32214590642403e+00	1.26603000352735e+00	1.21235730566827e+00	1.15749993407437e+00	1.10603873701792e+00	1.05966569741546e+00	1.01860629772614e+00	9.82307614201138e-01	9.50430468512270e-01	9.22318576053974e-01	8.97235011908580e-01	8.74833688780673e-01	8.54610657588723e-01	8.36256618239393e-01	8.19587443622137e-01	8.04256022039968e-01	7.89934252039005e-01	7.76490664564865e-01	7.63808206968719e-01	7.51912685452610e-01	7.40860953613663e-01	7.30584572864893e-01	7.20809325370039e-01	7.11333885310641e-01	7.02192523187914e-01	6.93694059207623e-01	6.85797113526367e-01	6.78267965965852e-01	6.70870913203380e-01	6.63728649644465e-01	6.57037765228819e-01	6.50985686043990e-01	6.45529591924751e-01	6.40603725939712e-01	6.36068780284141e-01	6.31831054835104e-01	6.27863269319245e-01	6.24061356399921e-01	6.20458856131459e-01	6.17099433417192e-01	6.14098979819963e-01	6.11167286295711e-01	6.08060560178916e-01	6.05254135709387e-01	6.03093775903437e-01	6.01969115898258e-01	6.02442479933772e-01	6.07339856917084e-01	6.18761696466606e-01	6.36499555364519e-01	6.62257510791113e-01	6.96360405036280e-01	7.50755376399232e-01	8.18866321720819e-01	8.78414460765676e-01	9.34280347585293e-01	9.93409395519973e-01	1.03446512690053e+00	1.05190368513454e+00	1.05694847391714e+00	1.04871515926497e+00	1.03120970192447e+00	1.01533201309472e+00	1.00584440188561e+00	1.00258773223254e+00	9.98563359411703e-01	9.96409426171859e-01	9.96111126307824e-01	9.96291230928628e-01	9.97391402268726e-01	9.99535564667940e-01	1.00231026061499e+00	1.00413831971170e+00	1.00574928019426e+00	1.00755285946113e+00	1.00956096184238e+00	1.01179922610447e+00	1.01438349246839e+00	1.01739104217727e+00	1.02072213150026e+00	1.02406792441248e+00	1.02705087318262e+00	1.02964655660827e+00	1.03258198348165e+00	1.03706702383363e+00	1.04421978770083e+00	1.05389166251411e+00	1.06397869486975e+00	1.07226629740839e+00	1.07874477740628e+00	1.08461637016982e+00	1.09116575944113e+00	1.09929051768348e+00	1.10881664500608e+00	1.11983566070306e+00	1.13208737441066e+00	1.14695510305557e+00	1.16369348884793e+00	1.15925699644731e+00	9.98973044086035e-01	9.99725663858808e-01	9.99813042461132e-01	9.99708378581346e-01	9.99642601427136e-01	9.99558113704356e-01	9.99456129295295e-01	9.99327214656761e-01	9.99185643045119e-01	9.99089177279778e-01	9.99040437902758e-01	9.99104164888365e-01	9.99254143817665e-01	9.99529248652648e-01	9.99758500862816e-01	9.99943413219206e-01	1.00004733660190e+00	1.00011219884357e+00	1.00015215569671e+00	1.00017066679309e+00	1.00018101908544e+00	1.00018518090075e+00	1.00018871442381e+00	1.00019469433625e+00	1.00019975128774e+00	1.00020823051399e+00	1.00022360695658e+00	1.00024316050163e+00	1.00027088576024e+00	1.00031203673927e+00	1.00035811875317e+00	1.00043259086643e+00	1.00050396636345e+00	1.00062302408268e+00	1.00073008801529e+00	1.00085667384492e+00	1.00098323032099e+00	1.00102391401130e+00	1.00102740792834e+00	1.00094258506024e+00	1.00085196462692e+00	1.00072444070110e+00	1.00060568375641e+00	1.00048871670505e+00	1.00038517680450e+00	1.00025627997952e+00	1.00015050256662e+00	1.00017871399277e+00	9.99458630125657e-01	9.98475389328274e-01	9.14860593259298e-01	8.84710221782160e-01	6.07492634461259e-01	1.04006098520056e+00	9.06991087937654e-01	1.16501272607015e+00	1.15242664682335e+00	9.43813521153514e-01	8.98279054616328e-01	1.30357870336230e+00	9.30003941218472e-01	8.53161027973939e-01	1.11701557656221e+00	1.10952454152322e+00	9.06054192049450e-01	9.13221176182370e-01	1.34498813940637e+00	1.10464570993023e+00	1.10212721577899e+00	1.31345181016779e+00	8.69764574792494e-01	9.71896385444658e-01	9.57450718680569e-01	6.24098459157562e-01	9.86323657237727e-01	6.56171062194466e-01	1.00082646983722e+00	1.07411933591506e+00	1.01648789850805e+00	9.01500350571138e-01	1.03451273277580e+00	1.34139065675691e+00	1.06982197007273e+00	1.05339138483143e+00	1.03050603626588e+00	8.73389550146931e-01	9.93525792433563e-01	1.08412508293980e+00	1.10077703840991e+00	1.09584112759417e+00	8.89031926601903e-01	1.02520943185218e+00	9.37067723343873e-01	1.13833430351964e+00	8.46949060841774e-01	8.64364690154179e-01	8.36637019398389e-01	8.55006620293621e-01	8.41267092516130e-01	8.48596825803137e-01	8.87150496365169e-01	9.82041638461206e-01	8.95936587389879e-01	9.34662369272518e-01	8.84512573217854e-01	9.16860984675834e-01	9.19437810521170e-01	9.63372861848680e-01	9.13463891482474e-01	1.06201168706027e+00	8.87900440311425e-01	8.92174789538299e-01	8.96703374230117e-01	8.90047808518637e-01	8.39460121714110e-01	8.90178990270522e-01	8.51710949695514e-01	1.00841668215191e+00	1.00419474981694e+00	1.12682362719913e+00	1.13803658568531e+00	9.98346658091565e-01	1.04407180274997e+00	1.07709482949451e+00	1.09909019348650e+00	1.26125388639043e+00	9.79138675942773e-01	9.04345736375865e-01	8.37441656259817e-01	9.21869724802177e-01	9.50510585608152e-01	8.88099073462146e-01	8.96438054621395e-01	8.43085858656083e-01	8.92839695257193e-01	9.23831391598222e-01	1.18289085903286e+00	1.06139029411588e+00	9.15837863508162e-01	8.91136501093992e-01	1.19971218021163e+00	9.00374907378455e-01	8.92926001471873e-01	9.15007268614190e-01	9.08491668496455e-01	8.59595415436361e-01	9.05469443843729e-01	1.33699649814858e+00	1.27532901654570e+00	6.78356993652193e-01	1.34575525938433e+00	9.37461852478839e-01	8.48348636653801e-01	8.88385773299504e-01	7.49064754610129e-01	6.10444899622755e-01	1.12528117470646e+00	6.49239704349384e-01	6.05733168976886e-01	1.06874148153176e+00	1.05115774084426e+00	1.01500048879703e+00	6.14433578812853e-01	6.05449499365638e-01	6.17393985492689e-01	1.02747861547585e+00	1.02098375161874e+00	7.99958394897258e-01	1.07584178468343e+00	1.04322897527971e+00	1.03348616819358e+00	7.72750162812192e-01	8.30963582022448e-01	6.40671186107562e-01	6.50565998230200e-01	7.00226984399907e-01	6.31960513753758e-01	6.04693168914107e-01	6.13833493413759e-01	7.18268923854579e-01	7.38367608924269e-01	1.02230265795755e+00	6.84118538049588e-01	6.69131682540384e-01	1.05775851700517e+00	7.86637184990379e-01	1.00123955399026e+00	1.00841835311248e+00	9.97815365077979e-01	9.97120567157489e-01	1.00646211683787e+00	1.00256483916842e+00	1.01783383500866e+00	1.01029165029802e+00	1.03743802891988e+00	1.02428266489836e+00	1.06025690147746e+00	1.00826448865583e+00	1.01251197242499e+00	9.99459369224296e-01	1.00485602285246e+00	9.97713393304803e-01	9.97165492942694e-01	1.02303057373295e+00	1.00489429751506e+00	1.04711211708427e+00	1.05691952090477e+00	7.18981572429093e-01	9.66218468647310e-01	6.76460979310296e-01	6.62378962029499e-01	7.08955235952565e-01	6.92052008366442e-01	8.67374618615126e-01	7.28164177938949e-01	1.03422417240677e+00	9.11660372961550e-01	8.93769969586720e-01	1.16473643222916e+00	1.09066314212024e+00	9.64624060571058e-01	9.18510547203542e-01	8.36428141919615e-01	1.21396976482658e+00	9.66188203119554e-01	1.11774041421022e+00	7.85929870310555e-01	8.14903046038260e-01	6.45419526451160e-01	7.60470265118625e-01	1.08216132579378e+00	1.08859861459612e+00	6.36205768399075e-01	1.09598543744536e+00	1.10453317618457e+00	6.27953959597769e-01	6.20575326695282e-01	1.03044338735864e+00	1.17525887816207e+00	1.13825057810393e+00	1.15090796272429e+00	8.59904335644279e-01	9.47716014275814e-01	1.11432980235692e+00	6.27685487690316e-01	1.23029645688813e+00	1.09732861415719e+00	9.07484268708802e-01	8.87181185976197e-01	9.11681377231528e-01	8.26637000434045e-01	1.28079821597253e+00	1.31544378405651e+00	9.14845809290467e-01	9.06138331814727e-01	1.03981847674360e+00	1.13942154741332e+00	8.23563039732580e-01	8.99852135189207e-01	9.50321983598530e-01	1.10785214481813e+00	9.20096891942666e-01	9.92181285886796e-01	9.78027190074632e-01	9.05347601737891e-01	1.29103433037575e+00	8.98350725875538e-01	1.07088236025386e+00	1.08465582918732e+00	8.93932123102409e-01	9.13653139164209e-01	8.82301350241480e-01	8.65881064918882e-01	9.10800091404836e-01	9.04189519437668e-01	1.02256255347915e+00	9.56942526580351e-01	1.11830399898168e+00	1.00873605746117e+00	1.05922397976994e+00	1.00716415769610e+00	7.70698062884880e-01	1.04992362653999e+00	7.17420861852989e-01	1.01323764408576e+00	1.09220755168333e+00	6.32812606393509e-01	6.40443134603195e-01	1.04303220917153e+00	1.01567391444285e+00	1.09965070026505e+00	1.04962258819061e+00	1.07888756988914e+00	6.69449219922421e-01	6.37223060711479e-01	6.76313997799275e-01	7.83231855383935e-01	8.94260069520914e-01	8.96590956711652e-01	1.07898902129851e+00	7.36885577215764e-01	8.80353576047195e-01	1.06511077739448e+00	1.10808793435008e+00	1.01837677568785e+00	8.94484209862170e-01	1.19004801381741e+00	1.12786525629382e+00	1.11738050263047e+00	1.15958911435120e+00	1.24378676878299e+00	1.17801138523661e+00	1.33741056484266e+00	1.33934786168205e+00	1.04193346055426e+00	1.20060133502655e+00	9.25508530844338e-01	1.14171304186794e+00	1.12151659875640e+00	6.13778630169799e-01	8.41796777823441e-01	1.10360365675972e+00	1.00671750062695e+00	8.81125194722391e-01	1.11376003756029e+00	1.32153966197845e+00	8.71916023523991e-01	6.17385319728281e-01	9.85084502134892e-01	6.51742538500900e-01	9.99343007747607e-01	1.01441176537952e+00	9.17456813752329e-01	1.03108885930801e+00	1.04842923135396e+00	1.07127292168187e+00	9.95066160799075e-01	1.07814377893528e+00	1.09034361803273e+00	1.10063503852515e+00	8.93999590272500e-01	9.37180848790444e-01	9.43830080263947e-01	1.13090990604324e+00	8.61574249942583e-01	8.56253260811525e-01	8.48869640935884e-01	1.01689995315838e+00	8.92899470108359e-01	8.82356027526211e-01	9.21551915175572e-01	9.60274521741297e-01	1.05657982640803e+00	1.06415327291793e+00	8.93647619633555e-01	9.00950385782407e-01	8.43256626830232e-01	8.53883117032398e-01	1.09476392487503e+00	1.09800187798069e+00	9.21613302507685e-01	9.29969892767485e-01	8.97605983026540e-01	8.95272617517406e-01	8.45991836889509e-01	8.49906834666033e-01	9.46743926137485e-01	9.35223970618113e-01	1.10331998142816e+00	9.20636029218013e-01	9.13736863434032e-01	8.95104350130499e-01	8.95648098187161e-01	9.01428736067271e-01	9.05162636779678e-01	9.16472144112923e-01	9.18244787591532e-01	9.08972992234359e-01	1.33553108597164e+00	1.21849655723756e+00	9.01395043147252e-01	1.08535509762686e+00	6.64793176916252e-01	6.23744461801445e-01	6.12754260196186e-01	6.08478082452184e-01	1.07229593043760e+00	1.05732665742141e+00	1.02767449344281e+00	6.09112213297893e-01	6.10909745057481e-01	6.21613577577584e-01	1.02449240024836e+00	1.03795973278937e+00	8.43134055848723e-01	8.60999323001577e-01	6.63131063210471e-01	6.57192965634839e-01	7.26826471686774e-01	7.47778777883141e-01	7.58991170363679e-01	9.98385787582238e-01	1.00433486873843e+00	1.00693605598011e+00	9.98305206381996e-01	1.00548854755006e+00	1.02134313852165e+00	1.01101026666591e+00	1.00895732539948e+00	1.00235808162532e+00	9.99840724387863e-01	9.98021891097239e-01	9.99772990788378e-01	1.01471242484289e+00	1.03114972960790e+00	1.05320876689160e+00	1.03807217574476e+00	7.52571279789616e-01	6.97451851568455e-01	9.97908871003132e-01	9.35966605598387e-01	6.83579906373512e-01	6.91495438216876e-01	6.99809594149066e-01	7.08544350667051e-01	1.04249761639190e+00	9.24551418038110e-01	9.50153525818602e-01	9.63838789322049e-01	9.70923814911446e-01	8.42774041903384e-01	8.41013385089617e-01	1.20246004883827e+00	9.78151562791431e-01	7.96728365100021e-01	8.11190605384779e-01	6.41760468659333e-01	6.46593512922400e-01	6.25262372105161e-01	6.28873279837012e-01	1.03409403635528e+00	1.03081639072184e+00	8.60441705869303e-01	8.69189630347623e-01	9.76233785523963e-01	1.25738489224201e+00	9.12546910072738e-01	1.29886805003231e+00	9.02068223561163e-01	9.18113253194580e-01	9.57298288613457e-01	8.46979990296764e-01	1.04432056649691e+00	1.09532104770891e+00	1.08851461758597e+00	1.05533716327004e+00	1.19229530716543e+00	1.10308896030000e+00	1.13904007336296e+00	1.15457173948178e+00	1.13318543885440e+00	1.18030712443450e+00	1.05195407297522e+00	1.31544891805864e+00	9.14088091306184e-01	1.05200176741118e+00	1.11061101866200e+00	7.91833151433458e-01	1.15427750118382e+00	1.17388431277754e+00	9.14907599495989e-01	1.24179827011879e+00	9.22406090202039e-01	1.07854968228481e+00	1.00528566023150e+00	1.14010654993086e+00	9.23434853597725e-01	9.98164868133923e-01	9.08004109837267e-01	1.11740250007078e+00	1.10826843307090e+00	1.07567520495627e+00	6.54952559864999e-01	1.04304924205764e+00	1.05816057418151e+00	1.11077255644161e+00	6.34351880030666e-01	6.64518921329850e-01	6.42915064423114e-01	7.36880944889675e-01	8.56062033025626e-01	1.14792475525892e+00	1.26870568984388e+00	1.25828752879821e+00	1.04973770602100e+00	1.29228447489824e+00	1.08507031905424e+00	9.20108601108488e-01	1.33225714290785e+00	8.99709949522425e-01	8.68240620870639e-01	1.02817240779172e+00	1.11852573372004e+00	1.00777472510045e+00	9.99060796601499e-01	1.05658966866532e+00	1.08207665399385e+00	1.04872431890644e+00	1.01884269849977e+00	1.01621496977474e+00	6.47864212065605e-01	6.58570645023348e-01	6.84409707638698e-01	7.95033071369040e-01	8.95007999910002e-01	9.02462688622092e-01	9.01137903921080e-01	1.08339249243470e+00	7.46787665107061e-01	1.06918139911103e+00	1.11895772354842e+00	1.15515126181230e+00	1.22825490424847e+00	1.20836124474332e+00	1.31713864828829e+00	1.00676844178160e+00	1.17177542689172e+00	1.16154000205342e+00	1.09004259725838e+00	1.10540185399092e+00	8.56002145421491e-01	8.72617170655949e-01	6.21589789333571e-01	9.84221692558827e-01	9.91185312581437e-01	1.01261679718338e+00	1.02029606814633e+00	9.36013332891189e-01	9.27368159564303e-01	1.02818368690766e+00	1.03630374460072e+00	1.07289433040820e+00	1.07926655405812e+00	1.10125459125332e+00	9.44576216328083e-01	9.50959218027356e-01	1.12498648052092e+00	8.63712074592057e-01	8.57414922526853e-01	8.91390098433763e-01	8.80858716020981e-01	9.88222349205373e-01	1.05931452309676e+00	1.06621468442265e+00	9.00845649300763e-01	9.00027807341089e-01	8.47998580206061e-01	8.50203413887375e-01	1.09416619958957e+00	1.09769623554951e+00	9.30458360075599e-01	9.38014955377657e-01	9.09187617536426e-01	9.05213034851802e-01	9.02429140656116e-01	8.53604010745284e-01	8.57481465884115e-01	9.72374159202298e-01	9.58446814927077e-01	9.46315329450586e-01	9.24162859970019e-01	9.20620317811358e-01	9.12076322383817e-01	8.99853498784851e-01	8.99972846632251e-01	9.00300003799330e-01	9.03199527190312e-01	9.06323317842655e-01	9.19872626140843e-01	9.21718119036847e-01	9.09830695504155e-01	9.14821433631716e-01	6.21479491371583e-01	6.13498808039160e-01	1.06233138461981e+00	6.13363804287650e-01	6.15208889125413e-01	6.17740604627111e-01	6.26007890129755e-01	1.02788307044730e+00	8.74203406698957e-01	8.93829605134004e-01	6.70686632403758e-01	6.77449974987241e-01	7.57618596153022e-01	7.69831916557312e-01	7.82361898347873e-01	1.00613228612019e+00	1.02473698757972e+00	1.02169702541153e+00	1.01379345805980e+00	1.01157768983667e+00	1.00958652975653e+00	1.00555819154798e+00	1.00212305458119e+00	1.00012426628508e+00	9.98811717370792e-01	9.98880561585628e-01	1.00200411959604e+00	1.00902660659953e+00	1.02215806064089e+00	1.03955016051625e+00	1.04724280381911e+00	7.22736904024765e-01	6.82662624802424e-01	1.02292528582778e+00	9.70305165886784e-01	9.08657792107141e-01	6.91911895671336e-01	6.99706580986232e-01	7.08378955234988e-01	7.17547468441061e-01	7.27255100697589e-01	9.37384383870033e-01	9.62283351410737e-01	9.63837976951875e-01	9.70620644563956e-01	9.77375612062101e-01	8.50470494415464e-01	8.46740238281964e-01	9.89561567613203e-01	1.01851304079866e+00	8.08624225488818e-01	8.23417375359078e-01	8.39199322337829e-01	6.53102151270134e-01	6.30696384293502e-01	6.34575534146627e-01	6.38501639332360e-01	1.03842090533647e+00	1.03456821708675e+00	1.03113551015722e+00	8.62752572575770e-01	8.70461281618724e-01	8.80915720375692e-01	9.13392010907888e-01	9.16302545028695e-01	1.27637206618872e+00	9.22952502448466e-01	1.11195125532767e+00	1.07866219632170e+00	8.52940444573816e-01	1.29361769658694e+00	1.14132891767727e+00	1.04821309060033e+00	1.05523569456090e+00	1.01687151952246e+00	1.09775222686777e+00	6.33807399570465e-01	1.24888118456014e+00	1.08556414791680e+00	1.16701141978093e+00	1.05390199314379e+00	1.10475056191227e+00	1.23845678821846e+00	1.05354024692413e+00	1.21198915137097e+00	1.15733042512786e+00	1.17501612612937e+00	9.64002720866962e-01	9.06057166515736e-01	1.05995518351163e+00	9.00067781135741e-01	9.29515100515187e-01	8.75243919509266e-01	9.21726045834837e-01	1.08481992777686e+00	7.54963554177820e-01	1.04808230622125e+00	1.04296433968718e+00	9.99659294340642e-01	7.58988134436207e-01	6.80460182880001e-01	1.10718422776493e+00	8.87122248844562e-01	1.00459512903293e+00	1.12695911179457e+00	1.09114089616654e+00	1.12638612200927e+00	1.08991784878275e+00	1.08384824821260e+00	9.16505536097604e-01	1.19665793349963e+00	9.24140018762332e-01	9.30871528838604e-01	1.11039953910088e+00	1.11286643295361e+00	1.13840392411314e+00	1.00797803145213e+00	6.47704641992093e-01	6.61305324564332e-01	1.26898620583481e+00	1.11687853562686e+00	1.05721995955057e+00	1.01933975903488e+00	6.55944164874991e-01	6.67507605238187e-01	6.73540362066644e-01	9.04575057923537e-01	9.11410231454229e-01	1.07251900047667e+00	1.14847604310059e+00	1.18089465283893e+00	1.22521028629612e+00	1.29557493868114e+00	1.03741054660830e+00	1.08531952046899e+00	1.10232730429856e+00	8.32740064208625e-01	9.90858054052552e-01	9.97565481783527e-01	1.01160291161247e+00	1.01879229775235e+00	9.46270305326184e-01	9.37232277173526e-01	1.02609999269249e+00	1.03358319532701e+00	1.04101299532565e+00	1.07433425328849e+00	1.08013686026636e+00	9.51446031400538e-01	9.58180907831866e-01	1.11937681801948e+00	8.71131142778519e-01	8.65955791044153e-01	8.90024976945518e-01	8.80874983766768e-01	1.06190360996515e+00	1.06815621169510e+00	9.08277653874688e-01	9.06583868235674e-01	8.55703812083484e-01	1.09403279547806e+00	1.09805615131138e+00	9.38970462707593e-01	9.46373201393432e-01	9.17482390031795e-01	9.13211713608698e-01	9.10344435563281e-01	8.57423708