# vtk DataFile Version 3.0
vtk output
ASCII
DATASET UNSTRUCTURED_GRID
POINTS 5233 float
9.997500e-001	-3.632897e-005	0.0	9.990000e-001	-1.452538e-004	0.0	9.977600e-001	-3.251112e-004	0.0	9.960200e-001	-5.769984e-004	0.0	9.937800e-001	-9.004365e-004	0.0	9.910500e-001	-1.293364e-003	0.0	9.878400e-001	-1.753610e-003	0.0	9.841300e-001	-2.283177e-003	0.0	9.799500e-001	-2.876826e-003	0.0	9.752800e-001	-3.536324e-003	0.0	9.701500e-001	-4.256269e-003	0.0	9.645400e-001	-5.038225e-003	0.0	9.584700e-001	-5.878077e-003	0.0	9.519400e-001	-6.774429e-003	0.0	9.449600e-001	-7.724467e-003	0.0	9.375400e-001	-8.725349e-003	0.0	9.296900e-001	-9.774221e-003	0.0	9.214000e-001	-1.087086e-002	0.0	9.127000e-001	-1.200973e-002	0.0	9.035800e-001	-1.319056e-002	0.0	8.940600e-001	-1.440916e-002	0.0	8.841500e-001	-1.566269e-002	0.0	8.738500e-001	-1.694956e-002	0.0	8.631800e-001	-1.826569e-002	0.0	8.521600e-001	-1.960709e-002	0.0	8.407700e-001	-2.097463e-002	0.0	8.290500e-001	-2.236196e-002	0.0	8.170100e-001	-2.376642e-002	0.0	8.046400e-001	-2.518764e-002	0.0	7.919700e-001	-2.662063e-002	0.0	7.790100e-001	-2.806277e-002	0.0	7.657800e-001	-2.951034e-002	0.0	7.522800e-001	-3.096181e-002	0.0	7.385200e-001	-3.241453e-002	0.0	7.245300e-001	-3.386377e-002	0.0	7.103200e-001	-3.530689e-002	0.0	6.958900e-001	-3.674225e-002	0.0	6.812700e-001	-3.816515e-002	0.0	6.664700e-001	-3.957289e-002	0.0	6.515000e-001	-4.096270e-002	0.0	6.363800e-001	-4.233084e-002	0.0	6.211300e-001	-4.367359e-002	0.0	6.057600e-001	-4.498807e-002	0.0	5.902800e-001	-4.627133e-002	0.0	5.747100e-001	-4.751951e-002	0.0	5.590600e-001	-4.872956e-002	0.0	5.433600e-001	-4.989684e-002	0.0	5.276100e-001	-5.101898e-002	0.0	5.118400e-001	-5.209138e-002	0.0	4.960500e-001	-5.311154e-002	0.0	4.802700e-001	-5.407492e-002	0.0	4.645100e-001	-5.497836e-002	0.0	4.487800e-001	-5.581860e-002	0.0	4.331100e-001	-5.659142e-002	0.0	4.175000e-001	-5.729417e-002	0.0	4.019700e-001	-5.792324e-002	0.0	3.865400e-001	-5.847521e-002	0.0	3.712300e-001	-5.894684e-002	0.0	3.560400e-001	-5.933562e-002	0.0	3.409900e-001	-5.963848e-002	0.0	3.261100e-001	-5.985254e-002	0.0	3.114000e-001	-5.997565e-002	0.0	2.968700e-001	-6.000550e-002	0.0	2.825500e-001	-5.994005e-002	0.0	2.684500e-001	-5.977766e-002	0.0	2.545700e-001	-5.951658e-002	0.0	2.409400e-001	-5.915586e-002	0.0	2.275700e-001	-5.869457e-002	0.0	2.144700e-001	-5.813197e-002	0.0	2.016600e-001	-5.746811e-002	0.0	1.891400e-001	-5.670228e-002	0.0	1.769300e-001	-5.583514e-002	0.0	1.650400e-001	-5.486709e-002	0.0	1.534900e-001	-5.379978e-002	0.0	1.422900e-001	-5.263443e-002	0.0	1.314400e-001	-5.137134e-002	0.0	1.209500e-001	-5.001187e-002	0.0	1.108500e-001	-4.856067e-002	0.0	1.011300e-001	-4.701715e-002	0.0	9.181000e-002	-4.538527e-002	0.0	8.290000e-002	-4.366791e-002	0.0	7.440000e-002	-4.186608e-002	0.0	6.633000e-002	-3.998514e-002	0.0	5.869000e-002	-3.802636e-002	0.0	5.149000e-002	-3.599338e-002	0.0	4.474000e-002	-3.389028e-002	0.0	3.844000e-002	-3.171811e-002	0.0	3.260000e-002	-2.948109e-002	0.0	2.723000e-002	-2.718420e-002	0.0	2.232000e-002	-2.482329e-002	0.0	1.790000e-002	-2.241365e-002	0.0	1.395000e-002	-1.994492e-002	0.0	1.049000e-002	-1.742916e-002	0.0	7.520000e-003	-1.486756e-002	0.0	5.040000e-003	-1.226032e-002	0.0	3.050000e-003	-9.605565e-003	0.0	1.560000e-003	-6.917518e-003	0.0	5.600000e-004	-4.173160e-003	0.0	6.000000e-005	-1.375330e-003	0.0	0.000000e+000	0.000000e+000	0.0	6.000000e-005	1.375330e-003	0.0	5.600000e-004	4.173160e-003	0.0	1.560000e-003	6.917518e-003	0.0	3.050000e-003	9.605565e-003	0.0	5.040000e-003	1.226032e-002	0.0	7.520000e-003	1.486756e-002	0.0	1.049000e-002	1.742916e-002	0.0	1.395000e-002	1.994492e-002	0.0	1.790000e-002	2.241365e-002	0.0	2.232000e-002	2.482329e-002	0.0	2.723000e-002	2.718420e-002	0.0	3.260000e-002	2.948109e-002	0.0	3.844000e-002	3.171811e-002	0.0	4.474000e-002	3.389028e-002	0.0	5.149000e-002	3.599338e-002	0.0	5.869000e-002	3.802636e-002	0.0	6.633000e-002	3.998514e-002	0.0	7.440000e-002	4.186608e-002	0.0	8.290000e-002	4.366791e-002	0.0	9.181000e-002	4.538527e-002	0.0	1.011300e-001	4.701715e-002	0.0	1.108500e-001	4.856067e-002	0.0	1.209500e-001	5.001187e-002	0.0	1.314400e-001	5.137134e-002	0.0	1.422900e-001	5.263443e-002	0.0	1.534900e-001	5.379978e-002	0.0	1.650400e-001	5.486709e-002	0.0	1.769300e-001	5.583514e-002	0.0	1.891400e-001	5.670228e-002	0.0	2.016600e-001	5.746811e-002	0.0	2.144700e-001	5.813197e-002	0.0	2.275700e-001	5.869457e-002	0.0	2.409400e-001	5.915586e-002	0.0	2.545700e-001	5.951658e-002	0.0	2.684500e-001	5.977766e-002	0.0	2.825500e-001	5.994005e-002	0.0	2.968700e-001	6.000550e-002	0.0	3.114000e-001	5.997565e-002	0.0	3.261100e-001	5.985254e-002	0.0	3.409900e-001	5.963848e-002	0.0	3.560400e-001	5.933562e-002	0.0	3.712300e-001	5.894684e-002	0.0	3.865400e-001	5.847521e-002	0.0	4.019700e-001	5.792324e-002	0.0	4.175000e-001	5.729417e-002	0.0	4.331100e-001	5.659142e-002	0.0	4.487800e-001	5.581860e-002	0.0	4.645100e-001	5.497836e-002	0.0	4.802700e-001	5.407492e-002	0.0	4.960500e-001	5.311154e-002	0.0	5.118400e-001	5.209138e-002	0.0	5.276100e-001	5.101898e-002	0.0	5.433600e-001	4.989684e-002	0.0	5.590600e-001	4.872956e-002	0.0	5.747100e-001	4.751951e-002	0.0	5.902800e-001	4.627133e-002	0.0	6.057600e-001	4.498807e-002	0.0	6.211300e-001	4.367359e-002	0.0	6.363800e-001	4.233084e-002	0.0	6.515000e-001	4.096270e-002	0.0	6.664700e-001	3.957289e-002	0.0	6.812700e-001	3.816515e-002	0.0	6.958900e-001	3.674225e-002	0.0	7.103200e-001	3.530689e-002	0.0	7.245300e-001	3.386377e-002	0.0	7.385200e-001	3.241453e-002	0.0	7.522800e-001	3.096181e-002	0.0	7.657800e-001	2.951034e-002	0.0	7.790100e-001	2.806277e-002	0.0	7.919700e-001	2.662063e-002	0.0	8.046400e-001	2.518764e-002	0.0	8.170100e-001	2.376642e-002	0.0	8.290500e-001	2.236196e-002	0.0	8.407700e-001	2.097463e-002	0.0	8.521600e-001	1.960709e-002	0.0	8.631800e-001	1.826569e-002	0.0	8.738500e-001	1.694956e-002	0.0	8.841500e-001	1.566269e-002	0.0	8.940600e-001	1.440916e-002	0.0	9.035800e-001	1.319056e-002	0.0	9.127000e-001	1.200973e-002	0.0	9.214000e-001	1.087086e-002	0.0	9.296900e-001	9.774221e-003	0.0	9.375400e-001	8.725349e-003	0.0	9.449600e-001	7.724467e-003	0.0	9.519400e-001	6.774429e-003	0.0	9.584700e-001	5.878077e-003	0.0	9.645400e-001	5.038225e-003	0.0	9.701500e-001	4.256269e-003	0.0	9.752800e-001	3.536324e-003	0.0	9.799500e-001	2.876826e-003	0.0	9.841300e-001	2.283177e-003	0.0	9.878400e-001	1.753610e-003	0.0	9.910500e-001	1.293364e-003	0.0	9.937800e-001	9.004365e-004	0.0	9.960200e-001	5.769984e-004	0.0	9.977600e-001	3.251112e-004	0.0	9.990000e-001	1.452538e-004	0.0	9.997500e-001	3.632897e-005	0.0	1.000000e+000	0.000000e+000	0.0	1.984229e+001	2.506660e+000	0.0	1.937166e+001	4.973800e+000	0.0	1.859553e+001	7.362490e+000	0.0	1.752613e+001	9.635070e+000	0.0	1.618034e+001	1.175571e+001	0.0	1.457937e+001	1.369094e+001	0.0	1.274848e+001	1.541027e+001	0.0	1.071654e+001	1.688656e+001	0.0	8.515590e+000	1.809654e+001	0.0	6.180340e+000	1.902113e+001	0.0	3.747630e+000	1.964575e+001	0.0	1.255810e+000	1.996053e+001	0.0	-1.255810e+000	1.996053e+001	0.0	-3.747630e+000	1.964574e+001	0.0	-6.180340e+000	1.902113e+001	0.0	-8.515590e+000	1.809654e+001	0.0	-1.071654e+001	1.688656e+001	0.0	-1.274848e+001	1.541026e+001	0.0	-1.457937e+001	1.369094e+001	0.0	-1.618034e+001	1.175570e+001	0.0	-1.752613e+001	9.635070e+000	0.0	-1.859553e+001	7.362490e+000	0.0	-1.937166e+001	4.973800e+000	0.0	-1.984229e+001	2.506660e+000	0.0	-2.000000e+001	0.000000e+000	0.0	-1.984229e+001	-2.506670e+000	0.0	-1.937166e+001	-4.973800e+000	0.0	-1.859553e+001	-7.362490e+000	0.0	-1.752613e+001	-9.635080e+000	0.0	-1.618034e+001	-1.175571e+001	0.0	-1.457937e+001	-1.369094e+001	0.0	-1.274848e+001	-1.541027e+001	0.0	-1.071653e+001	-1.688656e+001	0.0	-8.515580e+000	-1.809654e+001	0.0	-6.180340e+000	-1.902113e+001	0.0	-3.747620e+000	-1.964575e+001	0.0	-1.255810e+000	-1.996053e+001	0.0	1.255810e+000	-1.996053e+001	0.0	3.747630e+000	-1.964574e+001	0.0	6.180340e+000	-1.902113e+001	0.0	8.515590e+000	-1.809654e+001	0.0	1.071654e+001	-1.688656e+001	0.0	1.274848e+001	-1.541026e+001	0.0	1.457937e+001	-1.369094e+001	0.0	1.618034e+001	-1.175570e+001	0.0	1.752614e+001	-9.635070e+000	0.0	1.859553e+001	-7.362490e+000	0.0	1.937166e+001	-4.973790e+000	0.0	1.984229e+001	-2.506660e+000	0.0	2.000000e+001	0.000000e+000	0.0	6.071847e-002	-4.599300e-002	0.0	6.602584e-001	-5.397924e-002	0.0	4.259462e-001	7.123173e-002	0.0	6.898893e-001	5.084802e-002	0.0	3.793152e-001	-7.273116e-002	0.0	9.994604e-001	-7.202256e-004	0.0	9.985440e-001	-1.312423e-003	0.0	7.737237e-001	-4.090969e-002	0.0	6.898893e-001	-5.084802e-002	0.0	-1.456769e-003	6.464601e-003	0.0	7.467285e-001	-4.428984e-002	0.0	5.836398e-001	6.115854e-002	0.0	9.927702e-001	-3.577733e-003	0.0	9.898650e-001	-4.450375e-003	0.0	5.991925e-001	5.980916e-002	0.0	7.187526e-001	-4.760665e-002	0.0	-1.597618e-003	7.671995e-004	0.0	9.864674e-001	-5.394793e-003	0.0	9.825871e-001	-6.398977e-003	0.0	-1.456774e-003	-6.464600e-003	0.0	6.451948e-001	-5.549610e-002	0.0	8.243215e-001	-3.409983e-002	0.0	7.996157e-001	-3.751255e-002	0.0	3.487901e-001	7.326090e-002	0.0	8.477112e-001	-3.071909e-002	0.0	2.474256e-001	7.182160e-002	0.0	8.697233e-001	-2.738134e-002	0.0	9.916188e-003	2.185203e-002	0.0	8.902508e-001	-2.411717e-002	0.0	7.700293e-002	-5.054436e-002	0.0	9.092206e-001	-2.095307e-002	0.0	-1.944578e-003	-3.190372e-003	0.0	9.421664e-001	-1.502079e-002	0.0	9.265514e-001	-1.791177e-002	0.0	1.789678e-002	-2.766280e-002	0.0	4.259462e-001	-7.123173e-002	0.0	8.588986e-001	-2.904064e-002	0.0	9.560213e-001	-1.230722e-002	0.0	9.782180e-001	-7.479396e-003	0.0	9.680592e-001	-9.783205e-003	0.0	1.582863e-001	-6.490557e-002	0.0	8.999374e-001	-2.252139e-002	0.0	7.603588e-001	-4.260503e-002	0.0	9.971186e-001	-2.046344e-003	0.0	5.991925e-001	-5.980916e-002	0.0	4.416505e-001	-7.055456e-002	0.0	5.365104e-001	-6.487405e-002	0.0	4.732224e-001	-6.895566e-002	0.0	5.048788e-001	-6.705339e-002	0.0	4.890394e-001	-6.804024e-002	0.0	1.249513e-001	-6.028257e-002	0.0	2.780447e-002	-3.325805e-002	0.0	3.947663e-001	-7.232395e-002	0.0	4.619013e-002	-4.112
[...]
POINT_DATA 5233
SCALARS Density float 1
LOOKUP_TABLE default
1.18670707828672e+00	1.16272913789421e+00	1.14895226646246e+00	1.13790327902240e+00	1.12862736197080e+00	1.12082320334437e+00	1.11403964040282e+00	1.10790971649663e+00	1.10122271460837e+00	1.09268308032459e+00	1.08131246547574e+00	1.06755810386055e+00	1.05426330447087e+00	1.04463146104530e+00	1.03924268156743e+00	1.03631489663122e+00	1.03359647741914e+00	1.02960722894027e+00	1.02401035350674e+00	1.01720527008851e+00	1.00977526505230e+00	1.00216139293959e+00	9.94585723412108e-01	9.87163957494988e-01	9.79925277152470e-01	9.72921085937247e-01	9.66160238414222e-01	9.59639124354138e-01	9.53346614561334e-01	9.47326452371940e-01	9.41595760524300e-01	9.36007495763880e-01	9.30098331451067e-01	9.23433091729466e-01	9.15624849432816e-01	9.08063223609568e-01	9.00939105560776e-01	8.94386754600834e-01	8.87713074125267e-01	8.75987930968775e-01	8.64613126537223e-01	8.56284873563311e-01	8.49630894455008e-01	8.45090138629985e-01	8.41473119150154e-01	8.39336486870747e-01	8.38505482104686e-01	8.37545180183378e-01	8.41077013011578e-01	8.49356828037756e-01	8.55338549881476e-01	8.57409144752843e-01	8.58612116621860e-01	8.63442232954105e-01	8.72514822207128e-01	8.83432814497090e-01	8.96060875878894e-01	9.07311652411089e-01	9.12961341061380e-01	9.12671493039583e-01	9.11046490278526e-01	9.09631798084834e-01	9.07667564872287e-01	9.05087712003924e-01	9.01631795036228e-01	8.96948091919508e-01	8.91825451435808e-01	8.86750414860081e-01	8.82499656135874e-01	8.79634931093367e-01	8.77641670358372e-01	8.75909633531495e-01	8.74074631958813e-01	8.71999053724011e-01	8.70032133308243e-01	8.68471620289819e-01	8.67716538176161e-01	8.67984437067459e-01	8.69172058988884e-01	8.71182734965758e-01	8.74087776765262e-01	8.77987239443537e-01	8.83085781548409e-01	8.89540601564435e-01	8.97606527968302e-01	9.07638437491150e-01	9.19928983020376e-01	9.34907102186582e-01	9.53170456210273e-01	9.75254408035279e-01	1.00206588141584e+00	1.03449450871006e+00	1.07305601757636e+00	1.11835960972566e+00	1.17002536291484e+00	1.22584367776047e+00	1.27925741082077e+00	1.33141879103922e+00	1.35064097996428e+00	1.34818621537902e+00	1.34647946276749e+00	1.32126111656132e+00	1.26475238206528e+00	1.21290063722203e+00	1.16185280757409e+00	1.11528794834325e+00	1.07399967926461e+00	1.03762534509994e+00	1.00535559640936e+00	9.76788950602142e-01	9.51306555565208e-01	9.28254528310089e-01	9.07345531723055e-01	8.88164804635501e-01	8.70446796193622e-01	8.54004201571059e-01	8.38524266291239e-01	8.23752214971622e-01	8.09641546276509e-01	7.96148196337530e-01	7.83343598425065e-01	7.71229456289687e-01	7.59632542870462e-01	7.48282105387109e-01	7.37093979309477e-01	7.26251685081395e-01	7.16060963289099e-01	7.06405312035996e-01	6.97029454720031e-01	6.87748575007065e-01	6.78733699627816e-01	6.70174677573073e-01	6.62223325858349e-01	6.54810492782158e-01	6.47878403417316e-01	6.41305816619614e-01	6.35024351815074e-01	6.29038863828010e-01	6.23256556256369e-01	6.17751848019973e-01	6.12629257221540e-01	6.08082858288039e-01	6.03791729734304e-01	5.99347015935455e-01	5.95095753864715e-01	5.91781390058064e-01	5.90545523985178e-01	5.92077289173570e-01	5.99398871024867e-01	6.15370257284212e-01	6.39413373138360e-01	6.75444992208354e-01	7.24688029849440e-01	7.99453163652374e-01	8.83170395940790e-01	9.44591965094791e-01	9.86627314314389e-01	1.01738336942032e+00	1.02804676889124e+00	1.02175271766431e+00	1.01405191469999e+00	1.00414671281488e+00	9.92477699051712e-01	9.84650838814037e-01	9.86738619532464e-01	9.97208187897461e-01	1.00419165398944e+00	1.00602680148889e+00	1.00675361869220e+00	1.00606324543808e+00	1.00550047157546e+00	1.00662330622393e+00	1.00880940384804e+00	1.00981587812639e+00	1.01050263551736e+00	1.01142177813544e+00	1.01260980509752e+00	1.01406063409368e+00	1.01587820696813e+00	1.01814411038548e+00	1.02080789717088e+00	1.02364621554001e+00	1.02637030394310e+00	1.02895862660015e+00	1.03199989551363e+00	1.03648708967096e+00	1.04328633428903e+00	1.05211020457734e+00	1.06104291936818e+00	1.06824987348260e+00	1.07393556045176e+00	1.07937206929573e+00	1.08587274328367e+00	1.09425892438068e+00	1.10419526137718e+00	1.11562326459753e+00	1.12814435905861e+00	1.14317807883924e+00	1.15917221635315e+00	1.15705606030211e+00	9.98844454447934e-01	9.99725564559344e-01	9.99844467716889e-01	9.99749523079107e-01	9.99700370254301e-01	9.99634218705986e-01	9.99553291369841e-01	9.99449779025938e-01	9.99334916864678e-01	9.99259684848934e-01	9.99226456953391e-01	9.99290404849188e-01	9.99428087155240e-01	9.99669357706764e-01	9.99867378420188e-01	1.00002304011403e+00	1.00010784458062e+00	1.00015842200646e+00	1.00018642590556e+00	1.00019827803884e+00	1.00020303648322e+00	1.00020385619431e+00	1.00020422300607e+00	1.00020830279949e+00	1.00021184813661e+00	1.00021902336137e+00	1.00023306125762e+00	1.00025106952562e+00	1.00027710810279e+00	1.00031518303128e+00	1.00035758844768e+00	1.00042487746613e+00	1.00048801239722e+00	1.00059127022045e+00	1.00068031950002e+00	1.00078043396409e+00	1.00087467646470e+00	1.00089432394378e+00	1.00088498043318e+00	1.00080496034890e+00	1.00072316391169e+00	1.00061286046277e+00	1.00050999339542e+00	1.00040906534376e+00	1.00032144083121e+00	1.00020547895354e+00	1.00010757152069e+00	1.00015786068796e+00	9.99353120449699e-01	9.98254715452150e-01	9.00650136579166e-01	8.87198319767066e-01	5.97512519101776e-01	9.96906467781734e-01	9.04999480292539e-01	1.16543669167823e+00	1.15437976898442e+00	9.41745410114850e-01	9.00930740786149e-01	1.30409390200625e+00	9.30280867761010e-01	9.21571049679983e-01	1.12359475045273e+00	1.11615952147534e+00	9.68727420890251e-01	9.15030127688323e-01	1.34528073791953e+00	1.10948129522738e+00	1.10293956754673e+00	1.31295267082734e+00	8.72998846021184e-01	9.65342622937978e-01	9.53000288643846e-01	6.21756704097082e-01	9.78528242948161e-01	6.67625131194434e-01	9.92545875782351e-01	1.08742768821007e+00	1.00705706945478e+00	8.87304330828445e-01	1.02111311271270e+00	1.34179412214643e+00	1.03944936240067e+00	1.03212961493596e+00	1.02091571673695e+00	8.70555632965335e-01	9.85451421460566e-01	1.05186966791725e+00	1.09555582325728e+00	1.07511039917539e+00	8.77440761688684e-01	1.01426824110709e+00	9.36212339761291e-01	1.14192708989577e+00	8.51029447983113e-01	8.62817777815759e-01	8.41742067748633e-01	8.60342094077709e-01	8.48949946600635e-01	8.56749633409547e-01	8.74166684892598e-01	9.70222597097758e-01	8.92512320002194e-01	9.20911189126332e-01	8.80270634488844e-01	9.12567532606465e-01	9.15710340500763e-01	9.50724590191867e-01	9.08595505240277e-01	1.03595522941288e+00	8.75864256612043e-01	8.81751133150751e-01	8.82637059637429e-01	8.76398702295992e-01	8.43737855854688e-01	8.79007930753047e-01	8.56351766281669e-01	9.99774628132815e-01	9.93393000176062e-01	1.13215695955212e+00	1.13280409984746e+00	1.01929880743462e+00	1.02718442827869e+00	1.04421278237671e+00	1.08641492259926e+00	1.26245523373976e+00	9.71833232625135e-01	8.96619822091690e-01	8.42856397802460e-01	9.22990650358615e-01	9.47241403760495e-01	8.74735567332376e-01	8.86873752812941e-01	8.47137525128699e-01	8.95385388601557e-01	9.09780583003701e-01	1.17910056141470e+00	1.05317016177773e+00	9.14186985179886e-01	8.80353747965384e-01	1.19968322761952e+00	8.91581077114115e-01	8.79046624722140e-01	9.10894721273879e-01	9.01573634344112e-01	8.60815294888683e-01	9.07924820840803e-01	1.33706949895880e+00	1.27390607090283e+00	6.98016980116823e-01	1.34626071620333e+00	9.64182849890222e-01	8.80747051911009e-01	9.18831746941651e-01	7.78620893776674e-01	6.02028615375204e-01	1.12136263016422e+00	6.56489552087999e-01	5.96586498886273e-01	1.06535588946852e+00	1.04958210054043e+00	1.01683232854966e+00	6.08957819728351e-01	5.94545300211535e-01	6.11841335905392e-01	1.02702464357170e+00	1.02146482529544e+00	8.32403031193488e-01	1.07171742084686e+00	1.04224049307849e+00	1.03279569533963e+00	8.04057644842855e-01	8.63717478145836e-01	6.46209258074536e-01	6.60099001391469e-01	7.22347823912672e-01	6.33462988266462e-01	5.94369145534163e-01	6.06894832868820e-01	7.43538577230057e-01	7.66664379878696e-01	1.02892429332315e+00	7.02805360495672e-01	6.84249924549606e-01	1.01758135649682e+00	8.46422039166132e-01	1.00287000661553e+00	9.82110420988130e-01	1.00600055751170e+00	1.00692663762721e+00	1.01138564791086e+00	1.00895865979816e+00	1.01896664677020e+00	1.01358843417518e+00	1.03669615597738e+00	1.02421401562431e+00	1.05779618304226e+00	1.01234438962122e+00	1.01506336493483e+00	1.00629950553208e+00	1.01062851751567e+00	1.00570693060896e+00	1.00712093786151e+00	9.87001519792094e-01	9.91962513633718e-01	1.02539206385624e+00	1.00981143029469e+00	7.56837612223697e-01	1.00552407243800e+00	6.93365588494563e-01	6.75691846615694e-01	7.32670649173571e-01	7.12491386537843e-01	8.99009959449791e-01	7.54976974503313e-01	1.05153080670205e+00	9.40475898120958e-01	8.83691450424423e-01	1.17031830418685e+00	1.06275386924711e+00	9.59050332947103e-01	9.13937567277089e-01	8.41060589097195e-01	1.21673606448589e+00	9.90297115542460e-01	1.12699793780176e+00	8.17869262017298e-01	8.47645608084552e-01	6.52972674490580e-01	7.91008062186863e-01	1.07756322816633e+00	1.08381198819404e+00	6.39718389894221e-01	1.09127572133489e+00	1.10006008861946e+00	6.27498922352219e-01	6.16524516247888e-01	1.02979958206466e+00	1.17052306577603e+00	1.13446048821839e+00	1.14722452433560e+00	8.64109175504566e-01	9.34425481580714e-01	1.11014724138520e+00	6.27060801043083e-01	1.22782106014200e+00	1.09058981768036e+00	8.93232477721752e-01	8.74663474939002e-01	9.05729081570493e-01	8.57429640020378e-01	1.28193071177001e+00	1.31590438737249e+00	9.09349282491399e-01	9.08243640410765e-01	1.02457760063843e+00	1.13416007993532e+00	8.89752747575120e-01	9.02018738937509e-01	9.47479029499424e-01	1.11093391975466e+00	9.15509518655505e-01	9.84247037000718e-01	9.71212168384369e-01	8.91916246502562e-01	1.28996961258476e+00	8.88449050922273e-01	1.06310492394077e+00	1.05957091940250e+00	8.82206975708977e-01	9.15301111573188e-01	8.84540492054900e-01	8.65314920696952e-01	8.97308769323430e-01	9.01264777966726e-01	1.01174382337554e+00	9.53013340707010e-01	1.12757622763188e+00	1.02778358351388e+00	1.01326118798450e+00	1.01217913400261e+00	8.00054473966864e-01	1.00250036107434e+00	7.40741528546480e-01	1.01601732944535e+00	1.08786035566298e+00	6.32903916750686e-01	6.43547445363902e-01	1.04196819608489e+00	1.01777389953504e+00	1.09536498771401e+00	1.04811961443560e+00	1.07490554881510e+00	6.82960016667123e-01	6.39236522665459e-01	6.91588009203982e-01	8.13244710772074e-01	8.96403541936209e-01	8.86297506494235e-01	1.09155102261659e+00	7.62900206416963e-01	9.09628271743441e-01	1.06224778139504e+00	1.10397165708480e+00	1.01981517330836e+00	8.83129665534461e-01	1.18649101777272e+00	1.12408625884699e+00	1.11343930282037e+00	1.16585738653768e+00	1.24590912590179e+00	1.17397594163761e+00	1.33779593895314e+00	1.33975465995456e+00	1.03297206648492e+00	1.19903767785720e+00	9.12134550911970e-01	1.14382673769181e+00	1.12557085654044e+00	6.05745562789278e-01	8.46935123692133e-01	1.10416734731895e+00	9.97892985086802e-01	9.47998637814494e-01	1.11794336927388e+00	1.32128838586542e+00	8.69613543932007e-01	6.11056353750923e-01	9.77627886681901e-01	6.59637962984086e-01	9.91006361410292e-01	1.00483051884430e+00	9.03979773726885e-01	1.01840742053063e+00	1.03001037772114e+00	1.04391880150106e+00	9.84119429204252e-01	1.05063467241421e+00	1.06993194068329e+00	1.09713214600654e+00	8.81452980491961e-01	9.36544588746066e-01	9.42094157298935e-01	1.13415529931702e+00	8.64963078840227e-01	8.62892595448741e-01	8.56812227242567e-01	1.00688038491237e+00	8.88818886308165e-01	8.78782734405626e-01	9.17357782732507e-01	9.47917929263005e-01	1.03466261266149e+00	1.03897372352135e+00	8.81525681468715e-01	8.87628977185292e-01	8.47700278192311e-01	8.57995367778107e-01	1.08016321994277e+00	1.08927827998012e+00	9.22631771677840e-01	9.30291283020219e-01	8.84454971000196e-01	8.82376691161218e-01	8.49705138006533e-01	8.53610284034055e-01	9.33920102025653e-01	9.22061467117424e-01	1.09679100133664e+00	9.18073298129423e-01	9.12046363878920e-01	8.84118087098404e-01	8.85018161864882e-01	8.92182400476910e-01	8.96844872080306e-01	9.11901764855670e-01	9.13970074669612e-01	9.01587044332536e-01	1.33579432491294e+00	1.21561117035800e+00	9.29417670886478e-01	1.08108744969570e+00	6.77755370565734e-01	6.21348655055087e-01	6.05778601572059e-01	5.99676354744710e-01	1.06879339435369e+00	1.05518096114873e+00	1.02749590972835e+00	5.99314408663197e-01	6.01532097753189e-01	6.16830793693210e-01	1.02475443027220e+00	1.03713660168116e+00	8.73757299383205e-01	8.91138223778033e-01	6.74822344865155e-01	6.67007889949998e-01	7.51549701861004e-01	7.75006012127200e-01	7.87391568193463e-01	1.00667691244141e+00	9.98693598116293e-01	9.87007968318519e-01	1.00761116833277e+00	1.01124729916805e+00	1.02215981537487e+00	1.01450126213757e+00	1.01318384851213e+00	1.00847682547967e+00	1.00657793523366e+00	1.00616551757394e+00	1.00502407912729e+00	9.82288017157066e-01	9.90638898203539e-01	1.01961146432445e+00	1.02840208375793e+00	8.02199549021187e-01	7.25289240114357e-01	1.01904291900090e+00	9.88301887443218e-01	7.00553317801516e-01	7.10117456227870e-01	7.20045792033064e-01	7.30352403510290e-01	1.05838581856682e+00	9.50909810417761e-01	9.74446538937975e-01	9.58843740501841e-01	9.64942749264256e-01	8.48144600707309e-01	8.45533535065421e-01	1.20627183957260e+00	1.00001350945902e+00	8.27171320367231e-01	8.41894031362529e-01	6.45724507972879e-01	6.52529443636507e-01	6.21956016172149e-01	6.27179271892701e-01	1.03342430294414e+00	1.03033472804267e+00	8.64487550562191e-01	8.72497220375049e-01	9.64498322074247e-01	1.25548303632907e+00	9.05989695807810e-01	1.29819582256670e+00	8.98492246342339e-01	9.12964626484437e-01	9.53726303936589e-01	8.51610034689847e-01	1.02806305173567e+00	1.09129776962845e+00	1.08452304174897e+00	1.05338740134608e+00	1.19650058269147e+00	1.09913767599622e+00	1.13522526821094e+00	1.15076686710295e+00	1.13501258063475e+00	1.17798734242326e+00	1.04368194072802e+00	1.31569068035799e+00	9.01309681624624e-01	1.03319701341844e+00	1.11244636803235e+00	8.52648086575660e-01	1.15554529299791e+00	1.16981710984355e+00	9.16262383048808e-01	1.23957635382470e+00	9.23220787803466e-01	1.07130072013098e+00	9.96516503321141e-01	1.13499869700498e+00	9.18967006247076e-01	9.89958715743529e-01	9.09664172302352e-01	1.11980779768476e+00	1.10209367415695e+00	1.07215692835689e+00	6.62782905675874e-01	1.04196916976721e+00	1.01527760517117e+00	1.10692605813257e+00	6.34659723301799e-01	6.74671578811679e-01	6.45515729340285e-01	7.61105189306654e-01	8.84518747210308e-01	1.14442970282224e+00	1.26724953950670e+00	1.25991723491815e+00	1.06406197781110e+00	1.29300211015834e+00	1.06612422008358e+00	9.07345436925741e-01	1.33255611045451e+00	8.88271895376193e-01	8.69241782434611e-01	1.01896649688405e+00	1.12731287322457e+00	1.01279702074477e+00	1.00743527415484e+00	1.00702804218965e+00	1.07824471606876e+00	1.04727512743379e+00	1.02051805739870e+00	1.01852217630638e+00	6.52367644278612e-01	6.66866776836544e-01	6.99850143811257e-01	8.23701914293169e-01	8.96650929042758e-01	9.04138936409530e-01	8.91019129648676e-01	1.09488867666796e+00	7.72150771151479e-01	1.06611116604759e+00	1.11519704485807e+00	1.16144814504265e+00	1.23093355443731e+00	1.20528334824702e+00	1.31722049554754e+00	9.96697524044379e-01	1.17153020875002e+00	1.16160230270505e+00	1.07528657771421e+00	1.10570911519693e+00	9.25100828944827e-01	8.70841326719261e-01	6.15836960804559e-01	9.77143296502895e-01	9.83506559743635e-01	1.00312127586514e+00	1.00975270787290e+00	9.23488671487524e-01	9.14680483369047e-01	1.01619553414955e+00	1.02238619180374e+00	1.04952665425993e+00	1.05724483028527e+00	1.09896943262407e+00	9.43034128619458e-01	9.48386285820829e-01	1.12713175618786e+00	8.68593840385945e-01	8.64647778316737e-01	8.87271724100407e-01	8.77810373250976e-01	9.77408841046402e-01	1.03808103779209e+00	1.04326344393828e+00	8.88772573042628e-01	8.88295358649116e-01	8.52475071278464e-01	8.53675309424785e-01	1.08394834702852e+00	1.09176958536123e+00	9.30673639353283e-01	9.37442549313488e-01	8.96464568953591e-01	8.92595201491360e-01	8.90012141004542e-01	8.56991715102340e-01	8.60968889918970e-01	9.60967364312603e-01	9.46562400969842e-01	9.34059036909970e-01	9.20719814602912e-01	9.18715769378434e-01	9.09736756331532e-01	8.88725637877010e-01	8.89195339141415e-01	8.89850486573444e-01	8.93558140023484e-01	8.97435136665543e-01	9.15426887212101e-01	9.17175698596528e-01	9.01927129911773e-01	9.40373444032614e-01	6.17288375981420e-01	6.05980808220064e-01	1.05980794300871e+00	6.05014728936222e-01	6.06661768395863e-01	6.10173265449060e-01	6.21960709363488e-01	1.02795608239547e+00	9.01998720383903e-01	9.20661501855300e-01	6.82642169803369e-01	6.91171198522216e-01	7.83927512158538e-01	7.96983178250520e-01	8.10366005283813e-01	9.93807395645734e-01	1.02527615917043e+00	1.02278267685013e+00	1.01674431287269e+00	1.01519606924689e+00	1.01388153902035e+00	1.01116469863648e+00	1.00798722110417e+00	1.00688813885569e+00	1.00727948595375e+00	1.00550293943812e+00	1.00341312885388e+00	9.82876737531765e-01	9.84925330389538e-01	9.94123469427375e-01	1.02238654390954e+00	7.60529814261868e-01	7.02622039965127e-01	1.02638844133240e+00	1.00611344152467e+00	9.70279967450872e-01	7.09003704015046e-01	7.18368314018658e-01	7.28514789600196e-01	7.39113575828276e-01	7.50184708999319e-01	9.61279645566491e-01	9.84167167754302e-01	9.59280116080149e-01	9.65114446398521e-01	9.71021596451106e-01	8.56820338116280e-01	8.50956411650488e-01	1.00913841234114e+00	1.03557608966616e+00	8.37580714128012e-01	8.52392532056554e-01	8.68018468486618e-01	6.59512852950029e-01	6.28251917613470e-01	6.33702593064114e-01	6.39309197104738e-01	1.03760610019435e+00	1.03398986584609e+00	1.03084042616141e+00	8.66497372254577e-01	8.73621884523307e-01	8.83117055397807e-01	9.06311626408341e-01	9.10127090914503e-01	1.27531100863337e+00	9.10890561894021e-01	1.10827358884958e+00	1.07520627503228e+00	8.57086372823581e-01	1.29400792836002e+00	1.14249257130996e+00	1.03182488431244e+00	1.03712520781684e+00	1.00765873003475e+00	1.09397435396447e+00	6.33148891540397e-01	1.24710810287560e+00	1.09605192842263e+00	1.16296685145841e+00	1.05208581439767e+00	1.10100534713420e+00	1.24045110533061e+00	1.01570038402664e+00	1.21502967202712e+00	1.15356081498430e+00	1.17450827033128e+00	9.59773289680200e-01	8.94943409569253e-01	1.05236641416838e+00	8.96027910641939e-01	9.17514219679318e-01	8.74566965254945e-01	9.16735905220290e-01	1.08115785329930e+00	8.03788368740550e-01	1.04668706333889e+00	1.04192141812530e+00	1.00751859571087e+00	7.83555118559519e-01	6.92748113706848e-01	1.10705416725028e+00	9.12562384156147e-01	9.95976207467065e-01	1.12331197253338e+00	1.08737635212202e+00	1.12754246322144e+00	1.07922699916312e+00	1.07712284868009e+00	9.17544747313385e-01	1.19346021164130e+00	9.24671770765613e-01	9.30950405193594e-01	1.10458428204357e+00	1.11367270623185e+00	1.13349208380429e+00	1.01301477087945e+00	6.51877399266268e-01	6.68341673102159e-01	1.26999985777396e+00	1.12513732816388e+00	1.00764565261124e+00	1.02118021910054e+00	6.61208800509781e-01	6.76344753864366e-01	6.84113958550998e-01	9.05813110361865e-01	9.12511113290442e-01	1.06937646546035e+00	1.15471318554741e+00	1.18534221488358e+00	1.22276905945080e+00	1.29516739748383e+00	1.02898969279665e+00	1.07128917770721e+00	1.10048891504563e+00	9.00485337197352e-01	9.83482146666689e-01	9.89585417038333e-01	1.00226657952251e+00	1.00854724109588e+00	9.34623720848780e-01	9.25375616651484e-01	1.01469179804857e+00	1.02071380142000e+00	1.02645397479989e+00	1.05540636834218e+00	1.06320634436313e+00	9.49098970976657e-01	9.54863898626725e-01	1.12057346863659e+00	8.74029199233720e-01	8.71620297353508e-01	8.86411043527897e-01	8.78389455010578e-01	1.04251898860135e+00	1.04842434030387e+00	8.96752685799233e-01	8.95276586257768e-01	8.59138581941117e-01	1.08669298786619e+00	1.09377017178881e+00	9.38338703576274e-01	9.44829371691145e-01	9.05388714307158e-01	9.01184286500758e-01	8.98534871154349e-01	8.60528680