# vtk DataFile Version 3.0
vtk output
ASCII
DATASET UNSTRUCTURED_GRID
POINTS 5233 float
9.997500e-001	-3.632897e-005	0.0	9.990000e-001	-1.452538e-004	0.0	9.977600e-001	-3.251112e-004	0.0	9.960200e-001	-5.769984e-004	0.0	9.937800e-001	-9.004365e-004	0.0	9.910500e-001	-1.293364e-003	0.0	9.878400e-001	-1.753610e-003	0.0	9.841300e-001	-2.283177e-003	0.0	9.799500e-001	-2.876826e-003	0.0	9.752800e-001	-3.536324e-003	0.0	9.701500e-001	-4.256269e-003	0.0	9.645400e-001	-5.038225e-003	0.0	9.584700e-001	-5.878077e-003	0.0	9.519400e-001	-6.774429e-003	0.0	9.449600e-001	-7.724467e-003	0.0	9.375400e-001	-8.725349e-003	0.0	9.296900e-001	-9.774221e-003	0.0	9.214000e-001	-1.087086e-002	0.0	9.127000e-001	-1.200973e-002	0.0	9.035800e-001	-1.319056e-002	0.0	8.940600e-001	-1.440916e-002	0.0	8.841500e-001	-1.566269e-002	0.0	8.738500e-001	-1.694956e-002	0.0	8.631800e-001	-1.826569e-002	0.0	8.521600e-001	-1.960709e-002	0.0	8.407700e-001	-2.097463e-002	0.0	8.290500e-001	-2.236196e-002	0.0	8.170100e-001	-2.376642e-002	0.0	8.046400e-001	-2.518764e-002	0.0	7.919700e-001	-2.662063e-002	0.0	7.790100e-001	-2.806277e-002	0.0	7.657800e-001	-2.951034e-002	0.0	7.522800e-001	-3.096181e-002	0.0	7.385200e-001	-3.241453e-002	0.0	7.245300e-001	-3.386377e-002	0.0	7.103200e-001	-3.530689e-002	0.0	6.958900e-001	-3.674225e-002	0.0	6.812700e-001	-3.816515e-002	0.0	6.664700e-001	-3.957289e-002	0.0	6.515000e-001	-4.096270e-002	0.0	6.363800e-001	-4.233084e-002	0.0	6.211300e-001	-4.367359e-002	0.0	6.057600e-001	-4.498807e-002	0.0	5.902800e-001	-4.627133e-002	0.0	5.747100e-001	-4.751951e-002	0.0	5.590600e-001	-4.872956e-002	0.0	5.433600e-001	-4.989684e-002	0.0	5.276100e-001	-5.101898e-002	0.0	5.118400e-001	-5.209138e-002	0.0	4.960500e-001	-5.311154e-002	0.0	4.802700e-001	-5.407492e-002	0.0	4.645100e-001	-5.497836e-002	0.0	4.487800e-001	-5.581860e-002	0.0	4.331100e-001	-5.659142e-002	0.0	4.175000e-001	-5.729417e-002	0.0	4.019700e-001	-5.792324e-002	0.0	3.865400e-001	-5.847521e-002	0.0	3.712300e-001	-5.894684e-002	0.0	3.560400e-001	-5.933562e-002	0.0	3.409900e-001	-5.963848e-002	0.0	3.261100e-001	-5.985254e-002	0.0	3.114000e-001	-5.997565e-002	0.0	2.968700e-001	-6.000550e-002	0.0	2.825500e-001	-5.994005e-002	0.0	2.684500e-001	-5.977766e-002	0.0	2.545700e-001	-5.951658e-002	0.0	2.409400e-001	-5.915586e-002	0.0	2.275700e-001	-5.869457e-002	0.0	2.144700e-001	-5.813197e-002	0.0	2.016600e-001	-5.746811e-002	0.0	1.891400e-001	-5.670228e-002	0.0	1.769300e-001	-5.583514e-002	0.0	1.650400e-001	-5.486709e-002	0.0	1.534900e-001	-5.379978e-002	0.0	1.422900e-001	-5.263443e-002	0.0	1.314400e-001	-5.137134e-002	0.0	1.209500e-001	-5.001187e-002	0.0	1.108500e-001	-4.856067e-002	0.0	1.011300e-001	-4.701715e-002	0.0	9.181000e-002	-4.538527e-002	0.0	8.290000e-002	-4.366791e-002	0.0	7.440000e-002	-4.186608e-002	0.0	6.633000e-002	-3.998514e-002	0.0	5.869000e-002	-3.802636e-002	0.0	5.149000e-002	-3.599338e-002	0.0	4.474000e-002	-3.389028e-002	0.0	3.844000e-002	-3.171811e-002	0.0	3.260000e-002	-2.948109e-002	0.0	2.723000e-002	-2.718420e-002	0.0	2.232000e-002	-2.482329e-002	0.0	1.790000e-002	-2.241365e-002	0.0	1.395000e-002	-1.994492e-002	0.0	1.049000e-002	-1.742916e-002	0.0	7.520000e-003	-1.486756e-002	0.0	5.040000e-003	-1.226032e-002	0.0	3.050000e-003	-9.605565e-003	0.0	1.560000e-003	-6.917518e-003	0.0	5.600000e-004	-4.173160e-003	0.0	6.000000e-005	-1.375330e-003	0.0	0.000000e+000	0.000000e+000	0.0	6.000000e-005	1.375330e-003	0.0	5.600000e-004	4.173160e-003	0.0	1.560000e-003	6.917518e-003	0.0	3.050000e-003	9.605565e-003	0.0	5.040000e-003	1.226032e-002	0.0	7.520000e-003	1.486756e-002	0.0	1.049000e-002	1.742916e-002	0.0	1.395000e-002	1.994492e-002	0.0	1.790000e-002	2.241365e-002	0.0	2.232000e-002	2.482329e-002	0.0	2.723000e-002	2.718420e-002	0.0	3.260000e-002	2.948109e-002	0.0	3.844000e-002	3.171811e-002	0.0	4.474000e-002	3.389028e-002	0.0	5.149000e-002	3.599338e-002	0.0	5.869000e-002	3.802636e-002	0.0	6.633000e-002	3.998514e-002	0.0	7.440000e-002	4.186608e-002	0.0	8.290000e-002	4.366791e-002	0.0	9.181000e-002	4.538527e-002	0.0	1.011300e-001	4.701715e-002	0.0	1.108500e-001	4.856067e-002	0.0	1.209500e-001	5.001187e-002	0.0	1.314400e-001	5.137134e-002	0.0	1.422900e-001	5.263443e-002	0.0	1.534900e-001	5.379978e-002	0.0	1.650400e-001	5.486709e-002	0.0	1.769300e-001	5.583514e-002	0.0	1.891400e-001	5.670228e-002	0.0	2.016600e-001	5.746811e-002	0.0	2.144700e-001	5.813197e-002	0.0	2.275700e-001	5.869457e-002	0.0	2.409400e-001	5.915586e-002	0.0	2.545700e-001	5.951658e-002	0.0	2.684500e-001	5.977766e-002	0.0	2.825500e-001	5.994005e-002	0.0	2.968700e-001	6.000550e-002	0.0	3.114000e-001	5.997565e-002	0.0	3.261100e-001	5.985254e-002	0.0	3.409900e-001	5.963848e-002	0.0	3.560400e-001	5.933562e-002	0.0	3.712300e-001	5.894684e-002	0.0	3.865400e-001	5.847521e-002	0.0	4.019700e-001	5.792324e-002	0.0	4.175000e-001	5.729417e-002	0.0	4.331100e-001	5.659142e-002	0.0	4.487800e-001	5.581860e-002	0.0	4.645100e-001	5.497836e-002	0.0	4.802700e-001	5.407492e-002	0.0	4.960500e-001	5.311154e-002	0.0	5.118400e-001	5.209138e-002	0.0	5.276100e-001	5.101898e-002	0.0	5.433600e-001	4.989684e-002	0.0	5.590600e-001	4.872956e-002	0.0	5.747100e-001	4.751951e-002	0.0	5.902800e-001	4.627133e-002	0.0	6.057600e-001	4.498807e-002	0.0	6.211300e-001	4.367359e-002	0.0	6.363800e-001	4.233084e-002	0.0	6.515000e-001	4.096270e-002	0.0	6.664700e-001	3.957289e-002	0.0	6.812700e-001	3.816515e-002	0.0	6.958900e-001	3.674225e-002	0.0	7.103200e-001	3.530689e-002	0.0	7.245300e-001	3.386377e-002	0.0	7.385200e-001	3.241453e-002	0.0	7.522800e-001	3.096181e-002	0.0	7.657800e-001	2.951034e-002	0.0	7.790100e-001	2.806277e-002	0.0	7.919700e-001	2.662063e-002	0.0	8.046400e-001	2.518764e-002	0.0	8.170100e-001	2.376642e-002	0.0	8.290500e-001	2.236196e-002	0.0	8.407700e-001	2.097463e-002	0.0	8.521600e-001	1.960709e-002	0.0	8.631800e-001	1.826569e-002	0.0	8.738500e-001	1.694956e-002	0.0	8.841500e-001	1.566269e-002	0.0	8.940600e-001	1.440916e-002	0.0	9.035800e-001	1.319056e-002	0.0	9.127000e-001	1.200973e-002	0.0	9.214000e-001	1.087086e-002	0.0	9.296900e-001	9.774221e-003	0.0	9.375400e-001	8.725349e-003	0.0	9.449600e-001	7.724467e-003	0.0	9.519400e-001	6.774429e-003	0.0	9.584700e-001	5.878077e-003	0.0	9.645400e-001	5.038225e-003	0.0	9.701500e-001	4.256269e-003	0.0	9.752800e-001	3.536324e-003	0.0	9.799500e-001	2.876826e-003	0.0	9.841300e-001	2.283177e-003	0.0	9.878400e-001	1.753610e-003	0.0	9.910500e-001	1.293364e-003	0.0	9.937800e-001	9.004365e-004	0.0	9.960200e-001	5.769984e-004	0.0	9.977600e-001	3.251112e-004	0.0	9.990000e-001	1.452538e-004	0.0	9.997500e-001	3.632897e-005	0.0	1.000000e+000	0.000000e+000	0.0	1.984229e+001	2.506660e+000	0.0	1.937166e+001	4.973800e+000	0.0	1.859553e+001	7.362490e+000	0.0	1.752613e+001	9.635070e+000	0.0	1.618034e+001	1.175571e+001	0.0	1.457937e+001	1.369094e+001	0.0	1.274848e+001	1.541027e+001	0.0	1.071654e+001	1.688656e+001	0.0	8.515590e+000	1.809654e+001	0.0	6.180340e+000	1.902113e+001	0.0	3.747630e+000	1.964575e+001	0.0	1.255810e+000	1.996053e+001	0.0	-1.255810e+000	1.996053e+001	0.0	-3.747630e+000	1.964574e+001	0.0	-6.180340e+000	1.902113e+001	0.0	-8.515590e+000	1.809654e+001	0.0	-1.071654e+001	1.688656e+001	0.0	-1.274848e+001	1.541026e+001	0.0	-1.457937e+001	1.369094e+001	0.0	-1.618034e+001	1.175570e+001	0.0	-1.752613e+001	9.635070e+000	0.0	-1.859553e+001	7.362490e+000	0.0	-1.937166e+001	4.973800e+000	0.0	-1.984229e+001	2.506660e+000	0.0	-2.000000e+001	0.000000e+000	0.0	-1.984229e+001	-2.506670e+000	0.0	-1.937166e+001	-4.973800e+000	0.0	-1.859553e+001	-7.362490e+000	0.0	-1.752613e+001	-9.635080e+000	0.0	-1.618034e+001	-1.175571e+001	0.0	-1.457937e+001	-1.369094e+001	0.0	-1.274848e+001	-1.541027e+001	0.0	-1.071653e+001	-1.688656e+001	0.0	-8.515580e+000	-1.809654e+001	0.0	-6.180340e+000	-1.902113e+001	0.0	-3.747620e+000	-1.964575e+001	0.0	-1.255810e+000	-1.996053e+001	0.0	1.255810e+000	-1.996053e+001	0.0	3.747630e+000	-1.964574e+001	0.0	6.180340e+000	-1.902113e+001	0.0	8.515590e+000	-1.809654e+001	0.0	1.071654e+001	-1.688656e+001	0.0	1.274848e+001	-1.541026e+001	0.0	1.457937e+001	-1.369094e+001	0.0	1.618034e+001	-1.175570e+001	0.0	1.752614e+001	-9.635070e+000	0.0	1.859553e+001	-7.362490e+000	0.0	1.937166e+001	-4.973790e+000	0.0	1.984229e+001	-2.506660e+000	0.0	2.000000e+001	0.000000e+000	0.0	6.071847e-002	-4.599300e-002	0.0	6.602584e-001	-5.397924e-002	0.0	4.259462e-001	7.123173e-002	0.0	6.898893e-001	5.084802e-002	0.0	3.793152e-001	-7.273116e-002	0.0	9.994604e-001	-7.202256e-004	0.0	9.985440e-001	-1.312423e-003	0.0	7.737237e-001	-4.090969e-002	0.0	6.898893e-001	-5.084802e-002	0.0	-1.456769e-003	6.464601e-003	0.0	7.467285e-001	-4.428984e-002	0.0	5.836398e-001	6.115854e-002	0.0	9.927702e-001	-3.577733e-003	0.0	9.898650e-001	-4.450375e-003	0.0	5.991925e-001	5.980916e-002	0.0	7.187526e-001	-4.760665e-002	0.0	-1.597618e-003	7.671995e-004	0.0	9.864674e-001	-5.394793e-003	0.0	9.825871e-001	-6.398977e-003	0.0	-1.456774e-003	-6.464600e-003	0.0	6.451948e-001	-5.549610e-002	0.0	8.243215e-001	-3.409983e-002	0.0	7.996157e-001	-3.751255e-002	0.0	3.487901e-001	7.326090e-002	0.0	8.477112e-001	-3.071909e-002	0.0	2.474256e-001	7.182160e-002	0.0	8.697233e-001	-2.738134e-002	0.0	9.916188e-003	2.185203e-002	0.0	8.902508e-001	-2.411717e-002	0.0	7.700293e-002	-5.054436e-002	0.0	9.092206e-001	-2.095307e-002	0.0	-1.944578e-003	-3.190372e-003	0.0	9.421664e-001	-1.502079e-002	0.0	9.265514e-001	-1.791177e-002	0.0	1.789678e-002	-2.766280e-002	0.0	4.259462e-001	-7.123173e-002	0.0	8.588986e-001	-2.904064e-002	0.0	9.560213e-001	-1.230722e-002	0.0	9.782180e-001	-7.479396e-003	0.0	9.680592e-001	-9.783205e-003	0.0	1.582863e-001	-6.490557e-002	0.0	8.999374e-001	-2.252139e-002	0.0	7.603588e-001	-4.260503e-002	0.0	9.971186e-001	-2.046344e-003	0.0	5.991925e-001	-5.980916e-002	0.0	4.416505e-001	-7.055456e-002	0.0	5.365104e-001	-6.487405e-002	0.0	4.732224e-001	-6.895566e-002	0.0	5.048788e-001	-6.705339e-002	0.0	4.890394e-001	-6.804024e-002	0.0	1.249513e-001	-6.028257e-002	0.0	2.780447e-002	-3.325805e-002	0.0	3.947663e-001	-7.232395e-002	0.0	4.619013e-002	-4.112
[...]
POINT_DATA 5233
SCALARS Density float 1
LOOKUP_TABLE default
1.18577605519655e+00	1.16431850895030e+00	1.15391461086346e+00	1.14694887596211e+00	1.14114502557235e+00	1.13403972817943e+00	1.12245153141010e+00	1.10459167644343e+00	1.07962043567261e+00	1.04829495448550e+00	1.01239178661599e+00	9.77227928139903e-01	9.52876469132072e-01	9.46409133451028e-01	9.57032449124704e-01	9.78823746344936e-01	1.00506669840194e+00	1.03060269254103e+00	1.05248785132479e+00	1.06924725916455e+00	1.08025432779272e+00	1.08562227199617e+00	1.08597513750774e+00	1.08218565920831e+00	1.07502455139485e+00	1.06514991551911e+00	1.05300921106827e+00	1.03894094316281e+00	1.02344413605251e+00	1.00713772373281e+00	9.90376786073269e-01	9.72855206615223e-01	9.53946141624924e-01	9.35025134084901e-01	9.16108547550718e-01	8.97680689143890e-01	8.79164463921824e-01	8.61234245306314e-01	8.44761951525859e-01	8.16071423090175e-01	7.85871573798493e-01	7.64792783111796e-01	7.52070833020050e-01	7.47873488848650e-01	7.53640806970523e-01	7.68680488905453e-01	7.83392700474404e-01	8.03097928952868e-01	8.34729840876626e-01	8.68755839304831e-01	8.89383100421759e-01	8.90371555061184e-01	8.79269552503309e-01	8.76584992838308e-01	8.82397775437225e-01	8.87993916155971e-01	8.97808712461238e-01	9.08623965491184e-01	9.17966852380021e-01	9.25503168460838e-01	9.34050314006077e-01	9.39292623539831e-01	9.35720381045781e-01	9.28806629495511e-01	9.22582126537984e-01	9.16745771297223e-01	9.08548771739797e-01	8.96234486453060e-01	8.83264012775724e-01	8.73338410644881e-01	8.65675034857813e-01	8.58482536211329e-01	8.50906485594677e-01	8.42758913675986e-01	8.34681031446205e-01	8.27401536070453e-01	8.21795712465090e-01	8.18222752393567e-01	8.16388236247599e-01	8.16052417006248e-01	8.17259913903197e-01	8.20164354629709e-01	8.25084520094493e-01	8.32266979112314e-01	8.42100917618935e-01	8.55102756166963e-01	8.71679906188016e-01	8.92395642649542e-01	9.17981310097676e-01	9.48985347590545e-01	9.86256495032550e-01	1.03031068470038e+00	1.08075347153682e+00	1.13672384565006e+00	1.19575620100591e+00	1.25340854703779e+00	1.30110423956377e+00	1.33948912369034e+00	1.34985396285802e+00	1.34205441191537e+00	1.33721146225657e+00	1.31148398496820e+00	1.25556492261436e+00	1.20369611669935e+00	1.15141740762164e+00	1.10255676226968e+00	1.05837399703363e+00	1.01908853941512e+00	9.84263133429042e-01	9.53666432544391e-01	9.26705698897720e-01	9.02685770858891e-01	8.81294946170829e-01	8.62055092543837e-01	8.44663956022197e-01	8.28929145971490e-01	8.14490179519539e-01	8.00997993932454e-01	7.88300254764155e-01	7.76272290635457e-01	7.64946376015752e-01	7.54364888846556e-01	7.44421926226871e-01	7.34832274245282e-01	7.25417877545232e-01	7.16264102983098e-01	7.07677379000104e-01	6.99599866819991e-01	6.91803785061538e-01	6.84087723574324e-01	6.76599503739562e-01	6.69531542361151e-01	6.63053349729846e-01	6.57107402298364e-01	6.51627393307330e-01	6.46482505036364e-01	6.41607720487929e-01	6.37020170237252e-01	6.32638458539215e-01	6.28468651355260e-01	6.24491077973937e-01	6.20860293046614e-01	6.17118501973629e-01	6.12242294523941e-01	6.06592003938706e-01	6.01680993089622e-01	5.98456876638862e-01	5.95894001859648e-01	5.86073593387572e-01	5.67299851335384e-01	5.59703492171410e-01	5.80595991830725e-01	6.46037516397212e-01	7.74634591312332e-01	9.20717156519856e-01	1.00867333459397e+00	1.02391756099516e+00	1.00214327606447e+00	9.88494463255746e-01	9.86509412585391e-01	9.95508712812229e-01	1.01035643541535e+00	1.00020571354753e+00	9.78165251426576e-01	9.72877037477714e-01	9.76722326318045e-01	9.80319215525816e-01	9.82848666943739e-01	9.82167863550938e-01	9.81196395460210e-01	9.80941143775351e-01	9.83438931201734e-01	9.87593974783527e-01	9.90426120053442e-01	9.93309552982122e-01	9.97352750166264e-01	1.00292196454505e+00	1.01045390990021e+00	1.02059080104217e+00	1.03395070322482e+00	1.05061590987660e+00	1.06994779629270e+00	1.09037114600099e+00	1.10965543905411e+00	1.12513363596736e+00	1.13413709612164e+00	1.13467979522113e+00	1.12665957994278e+00	1.11223371154208e+00	1.09494504789089e+00	1.07888423474481e+00	1.06811265772660e+00	1.06559906883657e+00	1.07186596135340e+00	1.08468989172591e+00	1.10121865335716e+00	1.11907448136924e+00	1.13845383392775e+00	1.15798242683830e+00	1.15574982197383e+00	9.99013173451907e-01	9.99751471552612e-01	9.99846880651408e-01	9.99756112422164e-01	9.99704048755392e-01	9.99636025334722e-01	9.99552052565594e-01	9.99444092324901e-01	9.99324427493833e-01	9.99243108180496e-01	9.99203910324700e-01	9.99263121201722e-01	9.99398579594745e-01	9.99640989499528e-01	9.99841253423208e-01	9.99999770274864e-01	1.00008675974405e+00	1.00013925792801e+00	1.00016916854996e+00	1.00018214573612e+00	1.00018790709584e+00	1.00018947193487e+00	1.00019052380838e+00	1.00019484130465e+00	1.00019845130955e+00	1.00020559432819e+00	1.00021912645482e+00	1.00023644964804e+00	1.00026135323236e+00	1.00029781836312e+00	1.00033857475614e+00	1.00040289643504e+00	1.00046341631512e+00	1.00056207671409e+00	1.00064715545014e+00	1.00074251394499e+00	1.00083264044511e+00	1.00085316395877e+00	1.00084692903917e+00	1.00077464694856e+00	1.00070061012281e+00	1.00059750623575e+00	1.00050052274773e+00	1.00040423978399e+00	1.00031894749978e+00	1.00020886520167e+00	1.00011731892959e+00	1.00015365616642e+00	9.99468959122955e-01	9.98527697103071e-01	8.48310696711862e-01	8.42574367748609e-01	6.07685172803653e-01	1.01316318233444e+00	9.05393034720443e-01	1.16541802982432e+00	1.15638488074958e+00	9.83639367726387e-01	8.76448145795862e-01	1.29806278661274e+00	9.48672023077428e-01	9.83845738563459e-01	1.13104610821153e+00	1.12121255684945e+00	1.03317682564117e+00	9.12666765034915e-01	1.34033665001842e+00	1.10763034136476e+00	1.08932740741536e+00	1.32281660590534e+00	8.06684187643585e-01	1.04264628150939e+00	1.01449332121178e+00	6.32285455820802e-01	1.06423010059795e+00	6.68364252957499e-01	1.07618638514919e+00	1.07453224487543e+00	1.07426523316135e+00	8.33799638846613e-01	1.05432944510851e+00	1.34545672283455e+00	9.79502906676589e-01	1.01843202953259e+00	1.00731287119038e+00	8.82504580553420e-01	1.07162608245158e+00	9.68720809066729e-01	1.06622621158890e+00	1.00943472114387e+00	8.50722080933976e-01	1.06664041099212e+00	9.66570134768128e-01	1.14636404354842e+00	7.55679389503955e-01	8.77303784827007e-01	7.96382734694924e-01	8.98240219808534e-01	8.59043175961351e-01	8.87378743455637e-01	8.31249780480041e-01	9.39672960476761e-01	8.93505610673028e-01	8.73697972862339e-01	8.86878621759175e-01	9.39477762669066e-01	9.22917799264026e-01	9.13360733776906e-01	9.32089783374460e-01	9.97880707263156e-01	8.43349163625543e-01	8.71132214060894e-01	8.29785209943449e-01	8.26936268370587e-01	7.67366685918104e-01	8.57930319637435e-01	7.64310054711238e-01	1.07728305301068e+00	9.70826214352761e-01	1.13886354003215e+00	1.14560550494994e+00	1.00127516487192e+00	1.03789445723146e+00	9.68120791660965e-01	1.03896473286399e+00	1.25622483829018e+00	1.05445917201800e+00	9.13941505354949e-01	7.82820918743893e-01	9.30765042938862e-01	9.99322815806015e-01	8.28052116118344e-01	8.89782076229715e-01	7.55480409749056e-01	8.61453243522793e-01	8.59461963150421e-01	1.19696703402421e+00	1.04901981574120e+00	9.14148242857728e-01	8.64575032364083e-01	1.19773492468223e+00	9.03392786675169e-01	8.27557378603442e-01	9.38972973922402e-01	9.20047481902920e-01	8.87998310821973e-01	8.95083768512474e-01	1.33053233290745e+00	1.29005961980965e+00	6.02681297121600e-01	1.34424715859224e+00	9.42443839885856e-01	8.57025865867133e-01	8.95233438819751e-01	7.62640266825706e-01	6.13842453576309e-01	1.11266346225805e+00	5.63345625633472e-01	5.97515754674706e-01	1.09936467862166e+00	1.11919270893432e+00	1.02071301807726e+00	5.78585262243051e-01	6.03591310724800e-01	6.24292070945308e-01	1.07890745072541e+00	1.04585756687188e+00	8.11190180242084e-01	1.08777508505181e+00	1.12229932967710e+00	1.10940925140517e+00	7.85336127536519e-01	8.40535478882416e-01	6.51206924084794e-01	6.62269533667047e-01	7.14271837725064e-01	6.41271753117387e-01	6.00492413392354e-01	6.19668659265056e-01	7.32397306990238e-01	7.52246523952497e-01	9.91119984233234e-01	6.97734456393754e-01	6.82119140127466e-01	9.87346671764722e-01	8.58696980398046e-01	9.81009159959536e-01	9.72124690613496e-01	9.83543314391263e-01	9.85473675737947e-01	9.96254047724154e-01	9.89811839519914e-01	1.03200083825808e+00	1.00516334243095e+00	1.11889734253282e+00	1.06185634749778e+00	1.11075484388016e+00	1.00003076119647e+00	1.01191887149205e+00	9.85090132653673e-01	9.93478761768213e-01	9.84564166973585e-01	9.84554990871015e-01	9.87600863711502e-01	9.76711773782201e-01	9.88627716738128e-01	1.00716168603327e+00	6.97635817530989e-01	1.01417763577331e+00	6.89778577991266e-01	6.74996201246987e-01	7.23083827550629e-01	7.05917642598209e-01	8.75140958963741e-01	7.42211037720178e-01	1.03597079603630e+00	9.17581832346380e-01	8.78838347712701e-01	1.16214403966225e+00	9.83532277066303e-01	1.02912235285865e+00	9.29926392330566e-01	8.21699396576514e-01	1.20990308948130e+00	9.70184010777380e-01	1.11668288212922e+00	7.97878388847762e-01	8.25334998021647e-01	6.56565984115771e-01	7.73605471813494e-01	1.07886783485997e+00	1.07507040951809e+00	6.46113225881419e-01	1.07762988628340e+00	1.08579943700091e+00	6.36713097035910e-01	6.28138529980450e-01	1.09541100560593e+00	1.17098256035397e+00	1.12908552903671e+00	1.14461538055667e+00	7.81349137394819e-01	8.91504667592980e-01	1.09806097740515e+00	5.60496518332254e-01	1.24688520874668e+00	1.09561503070426e+00	8.39862596221751e-01	8.36574414181314e-01	9.25640522861166e-01	8.37046927673300e-01	1.27860889961872e+00	1.31262219635317e+00	9.28794363125128e-01	8.92987970034796e-01	1.04165882693638e+00	1.14301775799387e+00	9.34218056666149e-01	8.76209310546763e-01	9.92348474799819e-01	1.10832520266515e+00	9.34738689282653e-01	1.06100454298385e+00	1.04410143926490e+00	8.43470482149643e-01	1.30116248940203e+00	8.85650568144764e-01	1.05826463383945e+00	9.94409533643744e-01	8.52654398066884e-01	9.10482911079914e-01	8.34193388746061e-01	8.86017556332981e-01	8.48511939657091e-01	9.00943010394222e-01	1.06201962313611e+00	1.00639017035286e+00	1.11924090719999e+00	1.01252802895926e+00	9.98587533794466e-01	9.99210006552174e-01	7.83729861671551e-01	1.01618781426723e+00	7.31477799108084e-01	1.01379036011677e+00	1.08286506090146e+00	6.41804455564324e-01	5.60317607099853e-01	1.10971482343645e+00	1.02149481125106e+00	1.08707542433454e+00	1.11030232594852e+00	1.08649829896722e+00	6.82137714244813e-01	6.46758457355042e-01	6.89374070231594e-01	7.95735404148400e-01	8.62581400218142e-01	8.77058694934522e-01	1.08092648688961e+00	7.50793715685297e-01	8.88264829196501e-01	1.10042864381978e+00	1.09524645216256e+00	1.03106889211541e+00	8.58761781297429e-01	1.18627721880263e+00	1.11855382173591e+00	1.10594053490322e+00	1.15951759936521e+00	1.24183372126368e+00	1.18735951139522e+00	1.33976224633735e+00	1.33787373966221e+00	1.02040655985617e+00	1.19820949135096e+00	8.64953221576418e-01	1.14585264342836e+00	1.12906115542765e+00	6.15858987201110e-01	7.95811356961529e-01	1.09385691329544e+00	1.06809278501574e+00	1.01923089336274e+00	1.11983206643506e+00	1.32804405022622e+00	8.82353997617552e-01	6.22543877904652e-01	1.05361878602658e+00	6.62977860271971e-01	1.06599200046984e+00	1.06688067726783e+00	8.55583349483734e-01	1.05345718153783e+00	1.02741849077777e+00	9.88292546593218e-01	9.57245702493315e-01	9.86348050872976e-01	1.01142958670287e+00	1.07605863330246e+00	8.42111080690090e-01	9.61193953806589e-01	9.77431637962220e-01	1.13736064621171e+00	8.99695434503464e-01	8.98604815750086e-01	8.77855978323134e-01	9.86886507300470e-01	8.91679326304964e-01	8.87883678618413e-01	9.26430875956579e-01	9.09952116178916e-01	1.01216671153479e+00	9.98064574811861e-01	8.46843088361592e-01	8.40205042605640e-01	7.83052895516267e-01	7.68622590284753e-01	1.03322348650039e+00	1.05554627637271e+00	9.27170551014262e-01	9.44489257361021e-01	8.38788386129366e-01	8.39358447873873e-01	7.67831995031910e-01	7.63606339351752e-01	8.91941080437313e-01	8.77002918228962e-01	1.09929880377717e+00	9.19785630895772e-01	9.10636496103180e-01	8.64841402054242e-01	8.70629660502670e-01	8.97713198900918e-01	9.09417573590017e-01	9.35750926201918e-01	9.39996914860609e-01	9.17193900353517e-01	1.33251991714673e+00	1.23101712590874e+00	9.08474787145593e-01	1.08262015942292e+00	5.78139638232373e-01	5.69794679511342e-01	5.93684148822861e-01	6.04435402444361e-01	1.09303009746733e+00	1.10677025683562e+00	1.06946849072471e+00	6.07510966118181e-01	6.10368942891181e-01	6.28663048094702e-01	1.05557358797840e+00	1.10454012948502e+00	8.52726445923299e-01	8.69752671156843e-01	6.75391596575829e-01	6.68968717317384e-01	7.40858547925376e-01	7.61471055827093e-01	7.72413164453985e-01	9.86415122185505e-01	9.82345061734454e-01	9.76806117021218e-01	9.86882277480786e-01	9.96388667725679e-01	1.04250900979847e+00	1.00763728827364e+00	1.00281840591973e+00	9.91221895033869e-01	9.87341794506356e-01	9.88108731646875e-01	9.84997539635692e-01	9.76581653479267e-01	1.00139485144040e+00	9.86655021374362e-01	9.88987192867456e-01	7.79718427765075e-01	6.43859934334212e-01	1.00027502131912e+00	1.02601878638757e+00	6.96956991754040e-01	7.05128956740529e-01	7.13647584704443e-01	7.22524135413794e-01	1.04539585993102e+00	9.30807569584829e-01	9.55594220781902e-01	1.02000487331293e+00	1.03278789227102e+00	8.43405244645054e-01	8.14111672826073e-01	1.20139504443432e+00	9.82781324896989e-01	8.08605163146762e-01	8.22363929184573e-01	6.51838158634913e-01	6.57248912309249e-01	6.33073486092220e-01	6.37292562811296e-01	1.09530555375802e+00	1.08314574438304e+00	7.80652991525107e-01	8.02641447146912e-01	9.31557986748294e-01	1.27032276605868e+00	9.22584795844712e-01	1.30683201966036e+00	8.97703424111937e-01	9.32136183459652e-01	9.99940478348979e-01	8.11134306326667e-01	1.03279861967429e+00	1.08873328358674e+00	1.08614344846589e+00	1.10066279794864e+00	1.19320860715577e+00	1.09454815634751e+00	1.13139846439997e+00	1.14994523592495e+00	1.13606112314684e+00	1.17733732670603e+00	1.03269147234275e+00	1.31521879002564e+00	8.57111870928996e-01	1.02174171325840e+00	1.10983018662678e+00	8.69402993937884e-01	1.15643614405165e+00	1.18003781420586e+00	9.09475000087546e-01	1.25216167906011e+00	9.25472391384011e-01	1.06659035870995e+00	1.05950981908624e+00	1.14140788908092e+00	9.31004073121538e-01	1.05662821908213e+00	8.92881865028551e-01	1.11994678592047e+00	1.10340622544471e+00	1.08921754581484e+00	5.67444567190630e-01	1.09875642322299e+00	9.90781049990030e-01	1.10228536725932e+00	5.65968331289372e-01	6.76354199248762e-01	6.52691967991409e-01	7.50748120738687e-01	8.65501554539486e-01	1.14243006267789e+00	1.27820735085439e+00	1.25834125501130e+00	1.05341183978874e+00	1.29217428379523e+00	1.01692640215712e+00	8.63108556738868e-01	1.33285260988759e+00	8.61090862754449e-01	8.97998437147279e-01	1.00173318396034e+00	1.12078795451046e+00	1.00210273618596e+00	9.89046216634709e-01	1.01129346812962e+00	1.08641601172722e+00	1.10127386929681e+00	1.03041921402549e+00	1.02217989615637e+00	6.58140943807375e-01	6.69897768274291e-01	6.97501742674293e-01	8.07320689333186e-01	8.61483309944907e-01	8.78655849777903e-01	8.83187877650618e-01	1.08635586375798e+00	7.60513557735572e-01	1.09340494541446e+00	1.11071798552728e+00	1.15672433543358e+00	1.22860818009054e+00	1.21752054098397e+00	1.32212716031608e+00	9.73430482409537e-01	1.17016514762208e+00	1.16114139358439e+00	1.03302251670691e+00	1.09822713231703e+00	9.90416672408944e-01	8.86122484339503e-01	6.25739352710059e-01	1.04403703203613e+00	1.05135638159247e+00	1.05968569473994e+00	1.05696433210199e+00	8.81283502017328e-01	8.71081073743315e-01	1.05129455875838e+00	1.04305398059864e+00	1.00115612110484e+00	1.00557470464068e+00	1.08443874440812e+00	9.72699353034326e-01	9.86849725995645e-01	1.12798880651435e+00	9.06247151100370e-01	8.94292967840167e-01	8.92698494686213e-01	8.88638380317889e-01	9.48801377214264e-01	1.01130123766379e+00	1.00365570218505e+00	8.52813894597084e-01	8.56615417839817e-01	7.97541587194779e-01	7.83587547535341e-01	1.05088286746488e+00	1.06833721832285e+00	9.41598881183930e-01	9.57503291674891e-01	8.53035048276000e-01	8.50626366754053e-01	8.50442959882505e-01	7.74594740587411e-01	7.76035006487503e-01	9.27846732360624e-01	9.09624345995055e-01	8.94075533161532e-01	9.24617350954854e-01	9.16640124737713e-01	9.07811465754716e-01	8.66214923265707e-01	8.71384912469137e-01	8.76737428598336e-01	8.92704133436915e-01	9.04390460813918e-01	9.38511699811885e-01	9.38800458995408e-01	9.13905028631316e-01	9.21953426059380e-01	5.86096928544048e-01	6.07820718469726e-01	1.09765212308092e+00	6.12063289796276e-01	6.14737356700232e-01	6.19051930561244e-01	6.32873941793116e-01	1.06235069845488e+00	8.82847651875751e-01	9.01699244014794e-01	6.82987544895092e-01	6.90167352887591e-01	7.71087715669976e-01	7.82952271347403e-01	7.95110399893909e-01	9.82462736501065e-01	1.05089744466154e+00	1.04001302266292e+00	1.01537121406514e+00	1.00978632077209e+00	1.00548041297335e+00	9.98362686107622e-01	9.92842511102964e-01	9.89304088413960e-01	9.89203352907685e-01	9.89066384387438e-01	9.86661148232258e-01	9.75940067032685e-01	9.85795057068514e-01	1.01253377900032e+00	9.88301593922513e-01	7.03852208212593e-01	6.07305704483791e-01	9.91395481959739e-01	1.01214044979560e+00	1.03207856465149e+00	7.05315537198385e-01	7.13357989431839e-01	7.22183878929978e-01	7.31443699815467e-01	7.41163689146985e-01	9.43793079934083e-01	9.67989165870031e-01	1.01239986721564e+00	1.02431786919097e+00	1.03490479600547e+00	8.66457420243175e-01	8.33467431106493e-01	9.94584482365894e-01	1.02287030174134e+00	8.20297027967502e-01	8.34385233199831e-01	8.49417286193449e-01	6.63899464386744e-01	6.38801708966670e-01	6.43269354613464e-01	6.47765616254626e-01	1.09296944049975e+00	1.08437436590016e+00	1.07386331266090e+00	7.85049851960234e-01	8.02098522254855e-01	8.28121993427898e-01	9.20100849350528e-01	9.25724005573294e-01	1.28462907636618e+00	8.71004434114756e-01	1.10560307717262e+00	1.08790927534979e+00	8.10421142058473e-01	1.29589315488078e+00	1.14288354522966e+00	1.02791863713892e+00	1.02067027406809e+00	9.87612494628759e-01	1.09327299201123e+00	5.77751583610877e-01	1.25751015772591e+00	1.08932871845015e+00	1.17066777157404e+00	1.09379807404761e+00	1.09876746042625e+00	1.24031402968734e+00	9.87062822057054e-01	1.21401885643211e+00	1.15356196452964e+00	1.17249826217141e+00	1.00620396661108e+00	8.69964787192445e-01	1.04275918609153e+00	8.97356633868899e-01	8.77780621510551e-01	8.96650808545405e-01	9.34963142111229e-01	1.08775674168062e+00	7.80725373651087e-01	1.09245339318345e+00	1.08893198878897e+00	9.90963106599018e-01	7.72371792988604e-01	6.92745366843860e-01	1.10123325142055e+00	8.95561086194929e-01	1.05106535912092e+00	1.11994501700825e+00	1.08946641824372e+00	1.12720017316450e+00	1.04918301192736e+00	1.07252361245370e+00	9.09010757282539e-01	1.20332318285017e+00	9.24854882885826e-01	9.39079502959695e-01	1.10485920224789e+00	1.11094215473488e+00	1.13796562359364e+00	1.00405252430493e+00	5.66980888095375e-01	6.72266094494617e-01	1.27072171254898e+00	1.12015532267179e+00	9.98739375002886e-01	1.03047583351196e+00	6.66465626502207e-01	6.78924387595790e-01	6.85409213399051e-01	8.80892633984701e-01	8.96020903412636e-01	1.08943615122166e+00	1.15129572279426e+00	1.18328224980798e+00	1.23363099474343e+00	1.30194736072986e+00	1.01409021450665e+00	1.03550423140282e+00	1.09000002761669e+00	9.48534424583588e-01	1.04242332726791e+00	1.04785848958826e+00	1.05240616915031e+00	1.05107222501235e+00	8.97245290192355e-01	8.86498221891982e-01	1.04772283034802e+00	1.04228863799619e+00	1.03545916619703e+00	1.01628930403426e+00	1.02397006615565e+00	9.81901556402823e-01	9.94082691695002e-01	1.11961677978539e+00	9.08094237606828e-01	9.05278706886075e-01	8.94670847227647e-01	8.91464767340680e-01	1.01533747836469e+00	1.01349568396400e+00	8.64320885864700e-01	8.66437100379578e-01	8.00000706273071e-01	1.06339410419419e+00	1.07728145884785e+00	9.54480471663504e-01	9.70149563074111e-01	8.65921497555437e-01	8.62991715922630e-01	8.62783511600687e-01	7.87193098