# vtk DataFile Version 3.0
vtk output
ASCII
DATASET UNSTRUCTURED_GRID
POINTS 5233 float
9.997500e-001	-3.633015e-005	0.0	9.990000e-001	-1.453286e-004	0.0	9.977600e-001	-3.259268e-004	0.0	9.960200e-001	-5.813561e-004	0.0	9.937800e-001	-9.159265e-004	0.0	9.910500e-001	-1.335150e-003	0.0	9.878400e-001	-1.845305e-003	0.0	9.841300e-001	-2.454034e-003	0.0	9.799500e-001	-3.151268e-003	0.0	9.752800e-001	-3.920136e-003	0.0	9.701500e-001	-4.719529e-003	0.0	9.645400e-001	-5.505564e-003	0.0	9.584700e-001	-6.228273e-003	0.0	9.519400e-001	-6.853092e-003	0.0	9.449600e-001	-7.365755e-003	0.0	9.375400e-001	-7.775959e-003	0.0	9.296900e-001	-8.112873e-003	0.0	9.214000e-001	-8.417620e-003	0.0	9.127000e-001	-8.732863e-003	0.0	9.035800e-001	-9.099788e-003	0.0	8.940600e-001	-9.552191e-003	0.0	8.841500e-001	-1.011681e-002	0.0	8.738500e-001	-1.081390e-002	0.0	8.631800e-001	-1.165578e-002	0.0	8.521600e-001	-1.264823e-002	0.0	8.407700e-001	-1.379514e-002	0.0	8.290500e-001	-1.508957e-002	0.0	8.170100e-001	-1.652272e-002	0.0	8.046400e-001	-1.808494e-002	0.0	7.919700e-001	-1.975926e-002	0.0	7.790100e-001	-2.152977e-002	0.0	7.657800e-001	-2.337896e-002	0.0	7.522800e-001	-2.529269e-002	0.0	7.385200e-001	-2.725666e-002	0.0	7.245300e-001	-2.925512e-002	0.0	7.103200e-001	-3.127659e-002	0.0	6.958900e-001	-3.331228e-002	0.0	6.812700e-001	-3.535011e-002	0.0	6.664700e-001	-3.738145e-002	0.0	6.515000e-001	-3.939790e-002	0.0	6.363800e-001	-4.138974e-002	0.0	6.211300e-001	-4.334723e-002	0.0	6.057600e-001	-4.526176e-002	0.0	5.902800e-001	-4.712453e-002	0.0	5.747100e-001	-4.892558e-002	0.0	5.590600e-001	-5.065628e-002	0.0	5.433600e-001	-5.230627e-002	0.0	5.276100e-001	-5.386899e-002	0.0	5.118400e-001	-5.533563e-002	0.0	4.960500e-001	-5.670109e-002	0.0	4.802700e-001	-5.795859e-002	0.0	4.645100e-001	-5.910415e-002	0.0	4.487800e-001	-6.013462e-002	0.0	4.331100e-001	-6.104657e-002	0.0	4.175000e-001	-6.183926e-002	0.0	4.019700e-001	-6.251148e-002	0.0	3.865400e-001	-6.306278e-002	0.0	3.712300e-001	-6.349343e-002	0.0	3.560400e-001	-6.380455e-002	0.0	3.409900e-001	-6.399697e-002	0.0	3.261100e-001	-6.407190e-002	0.0	3.114000e-001	-6.403099e-002	0.0	2.968700e-001	-6.387567e-002	0.0	2.825500e-001	-6.360777e-002	0.0	2.684500e-001	-6.322905e-002	0.0	2.545700e-001	-6.274080e-002	0.0	2.409400e-001	-6.214527e-002	0.0	2.275700e-001	-6.144420e-002	0.0	2.144700e-001	-6.063923e-002	0.0	2.016600e-001	-5.973267e-002	0.0	1.891400e-001	-5.872548e-002	0.0	1.769300e-001	-5.762007e-002	0.0	1.650400e-001	-5.641820e-002	0.0	1.534900e-001	-5.512281e-002	0.0	1.422900e-001	-5.373606e-002	0.0	1.314400e-001	-5.225877e-002	0.0	1.209500e-001	-5.069296e-002	0.0	1.108500e-001	-4.904414e-002	0.0	1.011300e-001	-4.731185e-002	0.0	9.181000e-002	-4.550069e-002	0.0	8.290000e-002	-4.361410e-002	0.0	7.440000e-002	-4.165350e-002	0.0	6.633000e-002	-3.962528e-002	0.0	5.869000e-002	-3.753149e-002	0.0	5.149000e-002	-3.537702e-002	0.0	4.474000e-002	-3.316743e-002	0.0	3.844000e-002	-3.090537e-002	0.0	3.260000e-002	-2.859707e-002	0.0	2.723000e-002	-2.624968e-002	0.0	2.232000e-002	-2.386122e-002	0.0	1.790000e-002	-2.144935e-002	0.0	1.395000e-002	-1.900582e-002	0.0	1.049000e-002	-1.654431e-002	0.0	7.520000e-003	-1.406690e-002	0.0	5.040000e-003	-1.157354e-002	0.0	3.050000e-003	-9.060316e-003	0.0	1.560000e-003	-6.535242e-003	0.0	5.600000e-004	-3.965380e-003	0.0	6.000000e-005	-1.327510e-003	0.0	0.000000e+000	0.000000e+000	0.0	6.000000e-005	1.233285e-003	0.0	5.600000e-004	3.523689e-003	0.0	1.560000e-003	5.647586e-003	0.0	3.050000e-003	7.668713e-003	0.0	5.040000e-003	9.635156e-003	0.0	7.520000e-003	1.155391e-002	0.0	1.049000e-002	1.343716e-002	0.0	1.395000e-002	1.529125e-002	0.0	1.790000e-002	1.711900e-002	0.0	2.232000e-002	1.891311e-002	0.0	2.723000e-002	2.068145e-002	0.0	3.260000e-002	2.241171e-002	0.0	3.844000e-002	2.410533e-002	0.0	4.474000e-002	2.575641e-002	0.0	5.149000e-002	2.735925e-002	0.0	5.869000e-002	2.891042e-002	0.0	6.633000e-002	3.040417e-002	0.0	7.440000e-002	3.183517e-002	0.0	8.290000e-002	3.320012e-002	0.0	9.181000e-002	3.449287e-002	0.0	1.011300e-001	3.571096e-002	0.0	1.108500e-001	3.685088e-002	0.0	1.209500e-001	3.790880e-002	0.0	1.314400e-001	3.888465e-002	0.0	1.422900e-001	3.977506e-002	0.0	1.534900e-001	4.057948e-002	0.0	1.650400e-001	4.129853e-002	0.0	1.769300e-001	4.193254e-002	0.0	1.891400e-001	4.248199e-002	0.0	2.016600e-001	4.294847e-002	0.0	2.144700e-001	4.333373e-002	0.0	2.275700e-001	4.364049e-002	0.0	2.409400e-001	4.387124e-002	0.0	2.545700e-001	4.402898e-002	0.0	2.684500e-001	4.411685e-002	0.0	2.825500e-001	4.413810e-002	0.0	2.968700e-001	4.409621e-002	0.0	3.114000e-001	4.399456e-002	0.0	3.261100e-001	4.383675e-002	0.0	3.409900e-001	4.362627e-002	0.0	3.560400e-001	4.336633e-002	0.0	3.712300e-001	4.306062e-002	0.0	3.865400e-001	4.271270e-002	0.0	4.019700e-001	4.232564e-002	0.0	4.175000e-001	4.190294e-002	0.0	4.331100e-001	4.144809e-002	0.0	4.487800e-001	4.096461e-002	0.0	4.645100e-001	4.045532e-002	0.0	4.802700e-001	3.992387e-002	0.0	4.960500e-001	3.937313e-002	0.0	5.118400e-001	3.880567e-002	0.0	5.276100e-001	3.822448e-002	0.0	5.433600e-001	3.763096e-002	0.0	5.590600e-001	3.702704e-002	0.0	5.747100e-001	3.641276e-002	0.0	5.902800e-001	3.578845e-002	0.0	6.057600e-001	3.515266e-002	0.0	6.211300e-001	3.450323e-002	0.0	6.363800e-001	3.383641e-002	0.0	6.515000e-001	3.314720e-002	0.0	6.664700e-001	3.242986e-002	0.0	6.812700e-001	3.167767e-002	0.0	6.958900e-001	3.088259e-002	0.0	7.103200e-001	3.003606e-002	0.0	7.245300e-001	2.913071e-002	0.0	7.385200e-001	2.815794e-002	0.0	7.522800e-001	2.711084e-002	0.0	7.657800e-001	2.598609e-002	0.0	7.790100e-001	2.478170e-002	0.0	7.919700e-001	2.349796e-002	0.0	8.046400e-001	2.214088e-002	0.0	8.170100e-001	2.071964e-002	0.0	8.290500e-001	1.924985e-002	0.0	8.407700e-001	1.774557e-002	0.0	8.521600e-001	1.622517e-002	0.0	8.631800e-001	1.471156e-002	0.0	8.738500e-001	1.321803e-002	0.0	8.841500e-001	1.176025e-002	0.0	8.940600e-001	1.035046e-002	0.0	9.035800e-001	8.995730e-003	0.0	9.127000e-001	7.705421e-003	0.0	9.214000e-001	6.495413e-003	0.0	9.296900e-001	5.386059e-003	0.0	9.375400e-001	4.411534e-003	0.0	9.449600e-001	3.603232e-003	0.0	9.519400e-001	2.986194e-003	0.0	9.584700e-001	2.562950e-003	0.0	9.645400e-001	2.305174e-003	0.0	9.701500e-001	2.156314e-003	0.0	9.752800e-001	2.047230e-003	0.0	9.799500e-001	1.915385e-003	0.0	9.841300e-001	1.724477e-003	0.0	9.878400e-001	1.467694e-003	0.0	9.910500e-001	1.167265e-003	0.0	9.937800e-001	8.547310e-004	0.0	9.960200e-001	5.643333e-004	0.0	9.977600e-001	3.227638e-004	0.0	9.990000e-001	1.450396e-004	0.0	9.997500e-001	3.632557e-005	0.0	1.000000e+000	0.000000e+000	0.0	1.984229e+001	2.506660e+000	0.0	1.937166e+001	4.973800e+000	0.0	1.859553e+001	7.362490e+000	0.0	1.752613e+001	9.635070e+000	0.0	1.618034e+001	1.175571e+001	0.0	1.457937e+001	1.369094e+001	0.0	1.274848e+001	1.541027e+001	0.0	1.071654e+001	1.688656e+001	0.0	8.515590e+000	1.809654e+001	0.0	6.180340e+000	1.902113e+001	0.0	3.747630e+000	1.964575e+001	0.0	1.255810e+000	1.996053e+001	0.0	-1.255810e+000	1.996053e+001	0.0	-3.747630e+000	1.964574e+001	0.0	-6.180340e+000	1.902113e+001	0.0	-8.515590e+000	1.809654e+001	0.0	-1.071654e+001	1.688656e+001	0.0	-1.274848e+001	1.541026e+001	0.0	-1.457937e+001	1.369094e+001	0.0	-1.618034e+001	1.175570e+001	0.0	-1.752613e+001	9.635070e+000	0.0	-1.859553e+001	7.362490e+000	0.0	-1.937166e+001	4.973800e+000	0.0	-1.984229e+001	2.506660e+000	0.0	-2.000000e+001	0.000000e+000	0.0	-1.984229e+001	-2.506670e+000	0.0	-1.937166e+001	-4.973800e+000	0.0	-1.859553e+001	-7.362490e+000	0.0	-1.752613e+001	-9.635080e+000	0.0	-1.618034e+001	-1.175571e+001	0.0	-1.457937e+001	-1.369094e+001	0.0	-1.274848e+001	-1.541027e+001	0.0	-1.071653e+001	-1.688656e+001	0.0	-8.515580e+000	-1.809654e+001	0.0	-6.180340e+000	-1.902113e+001	0.0	-3.747620e+000	-1.964575e+001	0.0	-1.255810e+000	-1.996053e+001	0.0	1.255810e+000	-1.996053e+001	0.0	3.747630e+000	-1.964574e+001	0.0	6.180340e+000	-1.902113e+001	0.0	8.515590e+000	-1.809654e+001	0.0	1.071654e+001	-1.688656e+001	0.0	1.274848e+001	-1.541026e+001	0.0	1.457937e+001	-1.369094e+001	0.0	1.618034e+001	-1.175570e+001	0.0	1.752614e+001	-9.635070e+000	0.0	1.859553e+001	-7.362490e+000	0.0	1.937166e+001	-4.973790e+000	0.0	1.984229e+001	-2.506660e+000	0.0	2.000000e+001	0.000000e+000	0.0	6.064207e-002	-4.550768e-002	0.0	6.605642e-001	-5.206332e-002	0.0	4.257869e-001	5.605428e-002	0.0	6.895332e-001	4.457274e-002	0.0	3.793028e-001	-7.714971e-002	0.0	9.994617e-001	-7.064512e-004	0.0	9.985509e-001	-1.293684e-003	0.0	7.737855e-001	-3.478060e-002	0.0	6.901616e-001	-4.772640e-002	0.0	-1.104739e-003	5.444202e-003	0.0	7.468757e-001	-3.899784e-002	0.0	5.832553e-001	5.040930e-002	0.0	9.927913e-001	-3.580633e-003	0.0	9.898911e-001	-4.483998e-003	0.0	5.987987e-001	4.968110e-002	0.0	7.189708e-001	-4.334000e-002	0.0	-1.434531e-003	6.120983e-004	0.0	9.864981e-001	-5.476208e-003	0.0	9.826210e-001	-6.542361e-003	0.0	-1.242849e-003	-6.153169e-003	0.0	6.455092e-001	-5.418892e-002	0.0	8.241944e-001	-2.721471e-002	0.0	7.995824e-001	-3.082320e-002	0.0	3.487780e-001	5.734921e-002	0.0	8.475038e-001	-2.406936e-002	0.0	2.476110e-001	5.647689e-002	0.0	8.694571e-001	-2.142142e-002	0.0	1.040319e-002	1.760995e-002	0.0	8.899598e-001	-1.925762e-002	0.0	7.689756e-002	-5.035119e-002	0.0	9.089473e-001	-1.747438e-002	0.0	-1.724162e-003	-3.056212e-003	0.0	9.420371e-001	-1.421067e-002	0.0	9.263372e-001	-1.587522e-002	0.0	1.795440e-002	-2.666815e-002	0.0	4.260041e-001	-7.555972e-002	0.0	8.586583e-001	-2.267976e-002	0.0	9.559759e-001	-1.227644e-002	0.0	9.782512e-001	-7.687665e-003	0.0	9.680709e-001	-1.003464e-002	0.0	1.581084e-001	-6.629011e-002	0.0	8.996497e-001	-1.832912e-002	0.0	7.604650e-001	-3.686563e-002	0.0	9.971306e-001	-2.026278e-003	0.0	5.995016e-001	-6.027599e-002	0.0	4.417330e-001	-7.476455e-002	0.0	5.367488e-001	-6.736142e-002	0.0	4.733557e-001	-7.278633e-002	0.0	5.050652e-001	-7.030895e-002	0.0	4.891989e-001	-7.160815e-002	0.0	1.247920e-001	-6.101054e-002	0.0	2.781934e-002	-3.230725e-002	0.0	3.947768e-001	-7.675372e-002	0.0	4.614681e-002	-4.040
[...]
POINT_DATA 5233

SCALARS Density float 1
LOOKUP_TABLE default
1.172002e+000	1.149342e+000	1.134448e+000	1.122670e+000	1.112381e+000	1.102413e+000	1.091068e+000	1.077527e+000	1.061307e+000	1.042871e+000	1.023860e+000	1.007510e+000	9.973759e-001	9.952675e-001	1.000520e+000	1.010707e+000	1.023101e+000	1.035472e+000	1.046337e+000	1.055055e+000	1.061475e+000	1.065700e+000	1.067909e+000	1.068291e+000	1.067029e+000	1.064302e+000	1.060310e+000	1.055211e+000	1.049229e+000	1.042550e+000	1.035358e+000	1.027817e+000	1.020040e+000	1.012135e+000	1.004198e+000	9.962276e-001	9.882917e-001	9.803358e-001	9.723538e-001	9.643135e-001	9.564062e-001	9.490159e-001	9.419223e-001	9.341680e-001	9.266780e-001	9.259582e-001	9.362134e-001	9.373613e-001	8.814779e-001	7.661696e-001	7.050328e-001	7.065719e-001	7.190823e-001	7.276952e-001	7.324635e-001	7.369338e-001	7.422826e-001	7.480933e-001	7.540690e-001	7.601075e-001	7.662607e-001	7.725209e-001	7.788715e-001	7.853068e-001	7.918252e-001	7.984642e-001	8.052872e-001	8.122960e-001	8.194309e-001	8.266199e-001	8.338589e-001	8.412765e-001	8.490860e-001	8.574182e-001	8.662677e-001	8.755245e-001	8.852187e-001	8.954966e-001	9.064307e-001	9.180638e-001	9.305113e-001	9.438210e-001	9.581086e-001	9.734579e-001	9.899921e-001	1.007889e+000	1.027287e+000	1.048413e+000	1.071574e+000	1.096930e+000	1.124837e+000	1.155686e+000	1.189439e+000	1.226000e+000	1.264280e+000	1.302382e+000	1.332885e+000	1.350789e+000	1.339235e+000	1.308607e+000	1.284909e+000	1.224819e+000	1.115263e+000	1.033162e+000	9.719232e-001	9.275819e-001	8.962624e-001	8.735178e-001	8.555497e-001	8.405786e-001	8.275941e-001	8.158536e-001	8.050875e-001	7.949024e-001	7.851996e-001	7.760969e-001	7.675122e-001	7.592508e-001	7.511659e-001	7.431513e-001	7.353303e-001	7.280156e-001	7.214187e-001	7.153735e-001	7.095973e-001	7.039932e-001	6.988365e-001	6.941884e-001	6.899174e-001	6.858618e-001	6.821532e-001	6.790054e-001	6.765867e-001	6.748500e-001	6.736800e-001	6.729164e-001	6.724449e-001	6.722032e-001	6.721218e-001	6.721477e-001	6.724758e-001	6.739744e-001	6.771629e-001	6.788366e-001	6.740637e-001	6.679667e-001	7.288613e-001	8.826669e-001	9.744997e-001	9.751651e-001	9.602775e-001	9.551493e-001	9.543218e-001	9.524773e-001	9.499545e-001	9.477823e-001	9.459065e-001	9.440239e-001	9.420504e-001	9.400179e-001	9.380206e-001	9.361526e-001	9.345815e-001	9.334919e-001	9.331298e-001	9.337425e-001	9.355879e-001	9.388644e-001	9.437033e-001	9.501437e-001	9.580749e-001	9.672377e-001	9.773249e-001	9.879700e-001	9.987931e-001	1.009481e+000	1.019822e+000	1.029792e+000	1.039487e+000	1.049187e+000	1.059146e+000	1.069455e+000	1.079730e+000	1.089153e+000	1.096439e+000	1.100186e+000	1.099201e+000	1.093000e+000	1.082304e+000	1.069522e+000	1.058349e+000	1.052504e+000	1.054528e+000	1.064458e+000	1.079834e+000	1.098112e+000	1.117543e+000	1.138444e+000	1.162847e+000	1.152217e+000	9.996168e-001	9.998653e-001	9.998676e-001	9.998023e-001	9.997486e-001	9.996831e-001	9.996025e-001	9.994995e-001	9.993864e-001	9.993035e-001	9.992549e-001	9.992904e-001	9.993938e-001	9.995963e-001	9.997684e-001	9.999100e-001	9.999909e-001	1.000043e+000	1.000076e+000	1.000092e+000	1.000102e+000	1.000107e+000	1.000111e+000	1.000116e+000	1.000120e+000	1.000126e+000	1.000136e+000	1.000149e+000	1.000167e+000	1.000194e+000	1.000225e+000	1.000274e+000	1.000320e+000	1.000398e+000	1.000467e+000	1.000549e+000	1.000631e+000	1.000660e+000	1.000668e+000	1.000621e+000	1.000572e+000	1.000494e+000	1.000420e+000	1.000345e+000	1.000275e+000	1.000192e+000	1.000129e+000	1.000118e+000	9.998189e-001	9.994384e-001	9.790655e-001	9.703162e-001	6.708658e-001	9.385152e-001	7.517002e-001	1.152835e+000	1.140050e+000	1.030681e+000	9.857256e-001	1.221256e+000	1.016129e+000	9.501490e-001	1.105359e+000	1.094929e+000	9.483056e-001	1.001009e+000	1.308070e+000	1.083317e+000	1.070064e+000	1.337795e+000	9.626002e-001	1.054763e+000	1.043932e+000	6.750079e-001	1.061837e+000	6.806820e-001	1.063906e+000	9.326903e-001	1.059789e+000	9.491540e-001	1.048575e+000	1.343845e+000	1.012093e+000	1.030784e+000	1.129276e+000	7.366073e-001	1.063565e+000	1.006219e+000	1.055092e+000	1.023953e+000	8.616230e-001	1.055106e+000	1.023508e+000	1.126568e+000	9.413360e-001	7.312569e-001	9.492511e-001	7.083218e-001	8.267358e-001	7.197965e-001	8.898758e-001	1.077121e+000	7.459828e-001	1.013656e+000	7.408886e-001	7.759337e-001	7.636024e-001	1.054196e+000	7.887289e-001	1.020847e+000	8.705590e-001	8.378843e-001	9.357047e-001	9.113044e-001	9.284426e-001	8.532592e-001	9.484647e-001	1.062685e+000	1.102093e+000	1.115622e+000	1.224309e+000	8.819195e-001	1.040338e+000	1.006541e+000	1.039123e+000	1.146733e+000	1.058842e+000	8.087944e-001	9.348981e-001	1.008586e+000	1.037532e+000	9.002636e-001	8.231051e-001	9.333769e-001	9.780641e-001	9.957166e-001	1.258759e+000	1.158789e+000	7.576015e-001	8.454210e-001	1.185247e+000	8.158591e-001	9.231141e-001	7.822828e-001	8.019418e-001	7.193535e-001	9.933601e-001	1.280527e+000	1.320702e+000	9.558316e-001	1.324536e+000	8.471536e-001	7.975969e-001	8.202882e-001	7.354109e-001	6.787852e-001	1.109702e+000	9.571067e-001	9.658962e-001	1.075126e+000	1.089653e+000	1.035000e+000	9.848664e-001	6.742125e-001	6.771623e-001	1.071848e+000	1.053437e+000	7.689337e-001	1.066958e+000	1.092433e+000	1.087128e+000	7.513714e-001	7.874797e-001	6.764880e-001	6.787995e-001	7.043619e-001	6.753739e-001	7.982466e-001	6.805195e-001	7.157359e-001	7.284694e-001	9.449349e-001	6.947253e-001	6.864817e-001	9.414666e-001	9.524547e-001	9.392522e-001	9.372265e-001	9.588493e-001	9.462162e-001	9.960525e-001	9.762311e-001	1.044219e+000	1.016042e+000	1.091459e+000	1.062721e+000	1.083454e+000	1.006146e+000	1.025655e+000	9.670678e-001	9.859924e-001	9.420404e-001	9.518432e-001	9.375663e-001	9.377098e-001	9.431838e-001	9.398664e-001	9.547924e-001	9.466391e-001	6.903877e-001	6.832419e-001	7.098240e-001	6.993995e-001	8.085000e-001	7.220149e-001	9.044755e-001	8.330712e-001	8.304645e-001	1.017459e+000	1.012233e+000	1.049728e+000	7.697078e-001	9.345546e-001	1.077477e+000	8.631537e-001	9.693435e-001	7.600735e-001	7.779974e-001	6.774429e-001	7.430616e-001	1.061696e+000	1.061583e+000	6.758185e-001	1.067594e+000	1.078678e+000	6.751107e-001	6.753128e-001	1.080268e+000	1.177342e+000	1.128000e+000	1.144963e+000	9.552338e-001	1.033102e+000	1.093248e+000	9.668451e-001	1.292154e+000	1.190647e+000	9.635724e-001	8.800058e-001	7.952752e-001	7.896164e-001	1.205425e+000	1.261075e+000	7.995892e-001	9.907621e-001	1.043232e+000	1.214363e+000	9.524468e-001	9.834199e-001	1.032742e+000	1.087437e+000	7.802624e-001	1.058532e+000	1.053304e+000	9.411224e-001	1.318590e+000	8.350356e-001	1.155634e+000	1.018906e+000	8.755926e-001	9.980778e-001	9.685898e-001	7.335332e-001	9.545653e-001	7.562782e-001	1.053999e+000	1.038775e+000	9.949089e-001	9.049717e-001	9.434467e-001	9.940778e-001	7.522225e-001	9.423673e-001	7.169171e-001	1.021967e+000	1.071199e+000	6.787314e-001	9.597277e-001	1.085367e+000	1.030876e+000	1.078334e+000	1.085059e+000	1.068730e+000	6.888382e-001	6.791738e-001	6.922007e-001	7.607972e-001	9.760654e-001	8.426710e-001	9.589266e-001	7.297287e-001	8.229343e-001	1.077632e+000	1.089014e+000	1.039588e+000	8.666568e-001	1.188291e+000	1.116332e+000	1.101838e+000	1.038839e+000	1.146170e+000	1.244615e+000	1.330699e+000	1.315016e+000	1.128436e+000	1.191903e+000	9.841982e-001	1.128837e+000	1.107682e+000	6.722118e-001	9.420188e-001	1.076141e+000	1.059031e+000	9.506800e-001	1.097764e+000	1.332127e+000	7.410943e-001	6.827425e-001	1.056484e+000	6.821706e-001	1.059452e+000	1.057241e+000	9.688862e-001	1.049282e+000	1.036119e+000	1.016931e+000	1.079484e+000	1.015641e+000	1.026735e+000	1.063805e+000	8.951446e-001	1.019452e+000	1.026246e+000	1.117787e+000	7.183267e-001	7.201093e-001	7.812521e-001	1.103174e+000	7.508628e-001	7.461047e-001	7.740895e-001	1.037193e+000	1.028613e+000	1.021747e+000	8.851171e-001	9.285172e-001	9.334077e-001	9.480397e-001	1.037927e+000	1.050788e+000	1.005268e+000	1.012487e+000	9.167458e-001	9.056444e-001	9.350203e-001	9.413270e-001	1.018298e+000	1.000678e+000	1.184283e+000	7.680553e-001	7.621287e-001	8.583569e-001	8.504215e-001	8.275507e-001	8.202539e-001	7.930208e-001	7.865683e-001	8.131706e-001	1.298741e+000	1.274154e+000	8.359200e-001	1.067869e+000	9.579149e-001	9.718873e-001	9.834139e-001	9.122595e-001	1.072541e+000	1.082249e+000	1.064654e+000	7.253242e-001	6.686668e-001	6.813363e-001	1.056552e+000	1.083065e+000	7.999554e-001	8.109913e-001	6.861031e-001	6.838778e-001	7.230605e-001	7.369921e-001	7.443949e-001	9.604914e-001	9.432976e-001	9.419009e-001	9.543376e-001	9.848654e-001	1.048130e+000	1.012804e+000	1.003466e+000	9.760561e-001	9.678312e-001	9.494141e-001	9.457490e-001	9.414194e-001	9.416243e-001	9.447721e-001	9.462022e-001	9.547263e-001	9.570203e-001	9.476956e-001	9.491734e-001	6.961055e-001	7.006957e-001	7.057525e-001	7.112437e-001	9.295978e-001	8.502551e-001	8.662477e-001	1.044332e+000	1.049236e+000	8.999624e-001	9.474545e-001	1.090465e+000	8.842216e-001	7.700325e-001	7.796770e-001	6.798606e-001	6.808478e-001	6.794964e-001	6.786349e-001	1.078476e+000	1.072135e+000	9.543542e-001	9.612778e-001	1.057519e+000	1.300911e+000	8.062981e-001	1.312097e+000	7.617933e-001	8.045057e-001	1.034169e+000	9.459343e-001	1.039516e+000	1.079123e+000	1.073966e+000	1.079300e+000	1.098794e+000	1.087347e+000	1.131215e+000	1.152380e+000	1.119050e+000	1.174113e+000	1.127483e+000	1.283805e+000	9.470529e-001	1.034002e+000	1.091472e+000	9.548641e-001	1.141398e+000	1.231392e+000	9.955321e-001	1.280423e+000	1.002416e+000	1.152069e+000	1.055290e+000	1.204720e+000	7.852767e-001	1.055052e+000	9.886307e-001	1.101121e+000	1.178194e+000	1.072190e+000	9.608874e-001	1.078885e+000	9.468890e-001	1.097259e+000	9.652188e-001	6.892234e-001	6.833095e-001	7.313093e-001	8.127350e-001	1.142488e+000	1.295744e+000	1.191268e+000	9.501081e-001	1.243106e+000	1.030827e+000	9.603659e-001	1.312119e+000	8.810581e-001	7.350490e-001	1.103941e+000	1.013636e+000	9.932261e-001	9.629213e-001	9.460553e-001	1.071718e+000	1.080005e+000	1.035472e+000	1.027267e+000	6.841705e-001	6.870786e-001	6.984817e-001	7.711350e-001	9.744747e-001	9.815216e-001	8.478365e-001	9.795234e-001	7.380312e-001	1.074409e+000	1.107382e+000	1.053665e+000	1.145671e+000	1.256810e+000	1.314732e+000	1.081517e+000	1.158816e+000	1.149267e+000	1.039179e+000	1.081751e+000	9.529790e-001	7.450266e-001	6.799468e-001	1.051392e+000	1.053681e+000	1.054407e+000	1.052310e+000	9.896270e-001	9.745765e-001	1.049044e+000	1.044724e+000	1.023603e+000	1.025448e+000	1.071400e+000	1.022309e+000	1.028350e+000	1.110046e+000	7.254067e-001	7.531486e-001	7.564545e-001	7.517584e-001	1.060793e+000	1.028832e+000	1.025015e+000	9.008571e-001	8.906602e-001	9.385814e-001	9.369217e-001	1.049431e+000	1.060409e+000	1.009213e+000	1.015784e+000	9.345068e-001	9.225644e-001	9.114165e-001	9.413668e-001	9.478908e-001	1.041477e+000	1.023079e+000	1.005719e+000	7.792004e-001	7.732093e-001	7.673367e-001	8.723049e-001	8.639452e-001	8.558107e-001	8.400898e-001	8.325472e-001	7.979264e-001	7.915268e-001	8.252283e-001	8.513335e-001	9.816157e-001	9.722853e-001	1.077153e+000	8.232415e-001	6.793347e-001	6.665317e-001	6.835706e-001	1.058496e+000	8.246657e-001	8.374955e-001	6.917761e-001	6.949449e-001	7.455285e-001	7.540318e-001	7.625570e-001	9.474771e-001	1.051177e+000	1.043412e+000	1.018869e+000	1.010358e+000	1.001863e+000	9.847622e-001	9.768453e-001	9.694396e-001	9.574855e-001	9.530581e-001	9.497910e-001	9.461573e-001	9.455400e-001	9.455919e-001	9.479087e-001	9.574379e-001	9.598673e-001	9.490906e-001	9.503165e-001	9.516077e-001	7.026084e-001	7.071544e-001	7.125434e-001	7.184527e-001	7.248837e-001	8.666228e-001	8.838644e-001	1.039377e+000	1.044131e+000	1.048116e+000	8.524216e-001	9.324363e-001	9.032302e-001	9.249220e-001	7.805647e-001	7.908562e-001	8.015629e-001	6.854324e-001	6.840317e-001	6.831391e-001	6.829882e-001	1.075882e+000	1.071237e+000	1.065329e+000	9.538900e-001	9.604197e-001	9.672846e-001	8.181286e-001	8.112288e-001	1.291630e+000	9.530767e-001	1.101308e+000	1.073781e+000	9.457863e-001	1.263269e+000	1.127476e+000	1.037584e+000	1.033932e+000	1.082430e+000	1.085545e+000	9.699241e-001	1.274808e+000	9.965646e-001	1.216917e+000	1.075582e+000	1.093001e+000	1.178953e+000	9.496026e-001	1.141364e+000	1.156086e+000	1.161499e+000	1.035206e+000	8.877528e-001	1.125300e+000	7.687167e-001	9.663349e-001	7.499508e-001	8.106676e-001	1.075671e+000	9.565762e-001	1.074848e+000	1.072841e+000	9.658728e-001	7.482197e-001	6.990051e-001	1.086130e+000	8.383001e-001	1.051218e+000	1.117798e+000	1.079567e+000	1.111055e+000	1.049547e+000	1.147225e+000	9.933221e-001	1.239398e+000	9.998845e-001	1.006429e+000	1.170563e+000	1.094691e+000	1.194037e+000	9.924421e-001	9.620812e-001	6.912181e-001	1.222882e+000	1.028279e+000	9.494601e-001	1.032156e+000	6.898404e-001	6.933821e-001	6.957799e-001	9.799631e-001	9.867946e-001	1.073566e+000	1.063201e+000	1.101943e+000	1.260128e+000	1.297284e+000	1.103311e+000	1.041545e+000	1.077218e+000	9.547050e-001	1.048855e+000	1.050654e+000	1.051210e+000	1.049884e+000	9.948497e-001	9.801880e-001	1.047864e+000	1.044922e+000	1.041375e+000	1.031467e+000	1.035321e+000	1.024425e+000	1.029482e+000	1.103037e+000	7.412738e-001	7.530209e-001	7.630677e-001	7.576303e-001	1.031206e+000	1.030194e+000	9.072676e-001	8.966901e-001	9.429501e-001	1.058523e+000	1.067935e+000	1.012256e+000	1.019156e+000	9.406116e-001	9.289153e-001	9.180236e-001	9.417975e-001	9.471613e-001	1.063602e+000	1.044947e+000	1.026939e+000	1.010263e+000	7.916902e-001	7.856234e-001	7.798681e-001	7.740694e-001	8.790731e-001	8.705746e-001	8.621867e-001	8.541170e-001	8.463192e-001	7.977928e-001	8.041854e-001	8.387647e-001	9.816846e-001	1.074331e+000	1.075237e+000	9.248722e-001	7.475128e-001	6.749870e-001	6.732035e-001	6.827196e-001	8.522186e-001	8.672898e-001	7.023540e-001	7.065650e-001	7.557609e-001	7.642132e-001	7.736196e-001	7.829996e-001	1.053324e+000	1.046606e+000	1.039569e+000	1.024508e+000	1.016860e+000	1.009142e+000	1.000555e+000	9.859291e-001	9.781155e-001	9.709467e-001	9.601552e-001	9.569466e-001	9.530951e-001	9.516692e-001	9.495846e-001	9.494902e-001	9.487524e-001	9.601851e-001	9.588233e-001	9.507084e-001	9.513662e-001	9.526015e-001	9.534687e-001	7.106965e-001	7.156424e-001	7.205751e-001	7.267003e-001	7.331831e-001	7.405160e-001	8.830623e-001	9.007298e-001	1.038846e+000	1.043440e+000	1.046476e+000	8.200013e-001	9.027029e-001	9.403569e-001	9.210538e-001	9.434069e-001	9.680769e-001	7.923497e-001	8.026185e-001	8.141344e-001	8.259509e-001	6.871637e-001	6.879717e-001	6.887181e-001	6.888900e-001	1.059511e+000	1.069468e+000	1.065041e+000	9.527969e-001	9.596476e-001	9.662324e-001	9.733797e-001	8.314378e-001	8.242938e-001	8.174203e-001	1.162966e+000	1.097854e+000	1.050560e+000	1.148084e+000	1.183868e+000	1.006121e+000	9.594811e-001	1.203845e+000	1.074191e+000	1.241467e+000	1.101920e+000	8.959328e-001	7.679386e-001	1.039869e+000	1.137026e+000	1.237307e+000	1.292632e+000	1.294790e+000	1.282271e+000	1.255288e+000	1.106564e+000	6.980759e-001	1.057832e+000	1.089421e+000	1.035928e+000	1.032148e+000	7.756035e-001	1.089457e+000	1.054972e+000	1.067428e+000	9.574001e-001	9.671613e-001	9.518139e-001	9.654401e-001	9.797771e-001	9.497420e-001	6.953435e-001	1.083909e+000	9.724465e-001	1.136060e+000	1.076099e+000	1.293054e+000	1.154395e+000	1.143728e+000	1.037208e+000	1.083586e+000	1.269531e+000	1.010701e+000	1.223296e+000	1.071578e+000	1.168890e+000	1.147885e+000	1.150212e+000	1.142528e+000	8.100683e-001	8.179998e-001	1.079285e+000	9.546834e-001	1.070013e+000	1.081627e+000	9.943383e-001	1.204359e+000	6.993123e-001	7.035484e-001	7.056765e-001	9.819206e-001	1.070562e+000	1.103397e+000	1.276884e+000	1.122712e+000	1.046504e+000	1.047786e+000	1.047448e+000	1.047636e+000	9.859219e-001	1.000405e+000	1.046045e+000	1.044606e+000	1.041998e+000	1.039642e+000	1.039445e+000	1.044261e+000	1.023520e+000	1.096679e+000	7.565843e-001	7.619492e-001	7.685549e-001	7.651412e-001	1.035250e+000	1.036409e+000	9.134290e-001	9.026999e-001	1.065706e+000	1.073751e+000	1.015640e+000	9.468170e-001	9.347413e-001	9.262999e-001	9.490086e-001	1.065775e+000	1.048069e+000	1.030827e+000	1.015408e+000	8.052913e-001	7.978366e-001	7.933358e-001	7.860997e-001	7.820395e-001	8.855384e-001	8.784191e-001	8.681498e-001	8.615981e-001	8.521822e-001	1.073254e+000	1.072858e+000	1.072442e+000	9.648457e-001	8.357728e-001	7.077953e-001	6.813228e-001	6.770378e-001	8.676031e-001	8.834476e-001	7.112017e-001	7.141326e-001	7.737394e-001	7.851665e-001	7.958292e-001	1.048695e+000	1.042839e+000	1.036007e+000	1.029284e+000	1.022135e+000	1.015017e+000	1.007323e+000	9.961356e-001	9.865302e-001	9.756391e-001	9.580560e-001	9.537476e-001	9.519071e-001	9.528716e-001	9.541526e-001	7.206380e-001	7.239623e-001	7.312873e-001	7.351131e-001	7.437085e-001	7.509488e-001	7.592008e-001	9.001882e-001	9.177084e-001	1.038703e+000	1.042583e+000	1.043954e+000	8.052795e-001	8.996134e-001	9.376920e-001	9.605095e-001	9.843569e-001	8.058976e-001	8.162523e-001	8.279310e-001	8.413652e-001	8.542883e-001	6.855773e-001	6.911076e-001	6.940759e-001	6.952012e-001	1.064182e+000	1.059126e+000	9.548253e-001	9.684132e-001	8.461026e-001	8.371936e-001	8.315678e-001	8.232266e-001	1.134619e+000	1.125336e+000	1.191226e+000	1.256583e+000	1.153235e+000	1.064129e+000	1.082111e+000	1.188197e+000	1.069188e+000	1.109899e+000	1.077965e+000	1.257961e+000	1.100448e+000	1.173435e+000	7.031609e-001	1.148156e+000	1.075503e+000	1.159181e+000	1.155145e+000	1.057644e+000	9.326894e-001	1.078307e+000	8.206575e-001	1.038905e+000	1.039056e+000	9.628440e-001	9.654221e-001	8.978680e-001	1.236434e+000	7.790669e-001	9.924775e-001	9.791239e-001	7.916799e-001	1.073242e+000	1.052069e+000	1.216151e+000	1.048400e+000	1.051759e+000	1.141582e+000	1.075322e+000	1.291838e+000	1.248796e+000	1.084874e+000	1.010493e+000	9.833301e-001	9.281962e-001	1.086756e+000	1.144950e+000	1.101884e+000	1.276325e+000	1.148147e+000	1.084164e+000	1.223625e+000	1.208119e+000	9.534977e-001	1.118630e+000	1.067754e+000	1.065001e+000	9.635226e-001	7.084536e-001	7.163967e-001	1.000504e+000	1.103560e+000	1.131880e+000	1.137596e+000	1.044396e+000	1.044467e+000	1.005559e+000	1.042920e+000	1.040608e+000	1.046688e+000	1.091584e+000	7.741455e-001	1.040168e+000	1.042786e+000	9.148748e-001	1.070956e+000	1.018643e+000	1.026061e+000	9.480261e-001	9.322900e-001	9.516864e-001	1.067559e+000	1.049879e+000	1.033849e+000	1.022208e+000	8.083935e-001	7.970106e-001	7.887093e-001	8.801088e-001	8.634669e-001	1.071753e+000	1.070536e+000	7.313090e-001	6.861201e-001	8.994020e-001	7.263140e-001	8.087519e-001	9.849715e-001	1.041658e+000	1.029284e+000	1.016257e+000	1.004701e+000	9.947734e-001	9.746521e-001	9.658207e-001	9.595369e-001	9.557271e-001	9.539164e-001	9.537409e-001	9.544092e-001	9.539723e-001	7.376863e-001	7.500918e-001	7.629025e-001	7.686801e-001	7.799831e-001	9.173608e-001	9.348924e-001	1.033304e+000	1.039111e+000	1.042151e+000	7.966555e-001	8.657801e-001	9.536999e-001	9.755647e-001	9.987887e-001	1.022547e+000	8.207918e-001	8.312303e-001	8.427337e-001	8.565352e-001	8.723949e-001	8.820606e-001	6.920351e-001	7.008189e-001	1.063236e+000	1.059067e+000	9.530536e-001	9.768182e-001	9.892476e-001	8.481072e-001	8.338789e-001	1.091349e+000	1.135954e+000	1.130244e+000	1.108157e+000	1.045372e+000	1.083972e+000	1.144011e+000	1.105099e+000	1.193947e+000	1.147780e+000	1.116453e+000	1.097212e+000	1.102776e+000	1.197506e+000	1.239218e+000	1.069562e+000	1.013639e+000	7.099206e-001	1.097941e+000	1.041212e+000	1.114820e+000	9.070544e-001	1.078937e+000	1.179304e+000	7.952744e-001	1.042697e+000	9.712805e-001	9.427468e-001	1.063024e+000	1.068723e+000	1.098749e+000	1.084474e+000	1.142071e+000	1.076572e+000	1.079830e+000	1.066024e+000	7.233977e-001	9.525112e-001	9.952047e-001	1.010214e+000	1.121649e+000	1.128277e+000	1.273036e+000	1.057605e+000	1.067710e+000	1.147995e+000	1.074751e+000	1.174190e+000	1.163451e+000	9.069617e-001	1.229536e+000	1.000016e+000	9.844311e-001	1.073814e+000	1.235950e+000	1.052746e+000	1.080734e+000	1.005188e+000	1.256452e+000	1.147921e+000	1.025380e+000	1.218897e+000	1.207163e+000	9.