# vtk DataFile Version 3.0
vtk output
ASCII
DATASET UNSTRUCTURED_GRID
POINTS 5233 float
9.997500e-001	-3.633096e-005	0.0	9.990000e-001	-1.453792e-004	0.0	9.977600e-001	-3.264827e-004	0.0	9.960200e-001	-5.843621e-004	0.0	9.937800e-001	-9.268111e-004	0.0	9.910500e-001	-1.365330e-003	0.0	9.878400e-001	-1.914234e-003	0.0	9.841300e-001	-2.590168e-003	0.0	9.799500e-001	-3.389191e-003	0.0	9.752800e-001	-4.297071e-003	0.0	9.701500e-001	-5.268783e-003	0.0	9.645400e-001	-6.254841e-003	0.0	9.584700e-001	-7.199159e-003	0.0	9.519400e-001	-8.066743e-003	0.0	9.449600e-001	-8.849517e-003	0.0	9.375400e-001	-9.568798e-003	0.0	9.296900e-001	-1.026629e-002	0.0	9.214000e-001	-1.099217e-002	0.0	9.127000e-001	-1.178731e-002	0.0	9.035800e-001	-1.268259e-002	0.0	8.940600e-001	-1.369040e-002	0.0	8.841500e-001	-1.481050e-002	0.0	8.738500e-001	-1.603498e-002	0.0	8.631800e-001	-1.734949e-002	0.0	8.521600e-001	-1.873929e-002	0.0	8.407700e-001	-2.019671e-002	0.0	8.290500e-001	-2.170921e-002	0.0	8.170100e-001	-2.327033e-002	0.0	8.046400e-001	-2.487748e-002	0.0	7.919700e-001	-2.652292e-002	0.0	7.790100e-001	-2.820037e-002	0.0	7.657800e-001	-2.990054e-002	0.0	7.522800e-001	-3.161472e-002	0.0	7.385200e-001	-3.333119e-002	0.0	7.245300e-001	-3.503470e-002	0.0	7.103200e-001	-3.671222e-002	0.0	6.958900e-001	-3.835243e-002	0.0	6.812700e-001	-3.994189e-002	0.0	6.664700e-001	-4.147149e-002	0.0	6.515000e-001	-4.293438e-002	0.0	6.363800e-001	-4.432527e-002	0.0	6.211300e-001	-4.564151e-002	0.0	6.057600e-001	-4.688364e-002	0.0	5.902800e-001	-4.805412e-002	0.0	5.747100e-001	-4.915620e-002	0.0	5.590600e-001	-5.019506e-002	0.0	5.433600e-001	-5.117530e-002	0.0	5.276100e-001	-5.210377e-002	0.0	5.118400e-001	-5.298540e-002	0.0	4.960500e-001	-5.382639e-002	0.0	4.802700e-001	-5.463057e-002	0.0	4.645100e-001	-5.540186e-002	0.0	4.487800e-001	-5.614294e-002	0.0	4.331100e-001	-5.685425e-002	0.0	4.175000e-001	-5.753618e-002	0.0	4.019700e-001	-5.818675e-002	0.0	3.865400e-001	-5.880258e-002	0.0	3.712300e-001	-5.937896e-002	0.0	3.560400e-001	-5.991066e-002	0.0	3.409900e-001	-6.039055e-002	0.0	3.261100e-001	-6.081035e-002	0.0	3.114000e-001	-6.116197e-002	0.0	2.968700e-001	-6.143638e-002	0.0	2.825500e-001	-6.162393e-002	0.0	2.684500e-001	-6.171540e-002	0.0	2.545700e-001	-6.170158e-002	0.0	2.409400e-001	-6.157361e-002	0.0	2.275700e-001	-6.132332e-002	0.0	2.144700e-001	-6.094323e-002	0.0	2.016600e-001	-6.042712e-002	0.0	1.891400e-001	-5.976905e-002	0.0	1.769300e-001	-5.896510e-002	0.0	1.650400e-001	-5.801223e-002	0.0	1.534900e-001	-5.690967e-002	0.0	1.422900e-001	-5.565751e-002	0.0	1.314400e-001	-5.425588e-002	0.0	1.209500e-001	-5.270719e-002	0.0	1.108500e-001	-5.101884e-002	0.0	1.011300e-001	-4.919340e-002	0.0	9.181000e-002	-4.723983e-002	0.0	8.290000e-002	-4.516701e-002	0.0	7.440000e-002	-4.298255e-002	0.0	6.633000e-002	-4.070038e-002	0.0	5.869000e-002	-3.833036e-002	0.0	5.149000e-002	-3.588607e-002	0.0	4.474000e-002	-3.338231e-002	0.0	3.844000e-002	-3.083086e-002	0.0	3.260000e-002	-2.824776e-002	0.0	2.723000e-002	-2.565006e-002	0.0	2.232000e-002	-2.304468e-002	0.0	1.790000e-002	-2.045970e-002	0.0	1.395000e-002	-1.789473e-002	0.0	1.049000e-002	-1.537214e-002	0.0	7.520000e-003	-1.290076e-002	0.0	5.040000e-003	-1.048574e-002	0.0	3.050000e-003	-8.125947e-003	0.0	1.560000e-003	-5.826202e-003	0.0	5.600000e-004	-3.543824e-003	0.0	6.000000e-005	-1.216880e-003	0.0	0.000000e+000	0.000000e+000	0.0	6.000000e-005	1.355311e-003	0.0	5.600000e-004	4.047902e-003	0.0	1.560000e-003	6.629777e-003	0.0	3.050000e-003	9.115456e-003	0.0	5.040000e-003	1.153750e-002	0.0	7.520000e-003	1.389137e-002	0.0	1.049000e-002	1.618565e-002	0.0	1.395000e-002	1.842558e-002	0.0	1.790000e-002	2.061438e-002	0.0	2.232000e-002	2.274472e-002	0.0	2.723000e-002	2.482819e-002	0.0	3.260000e-002	2.685302e-002	0.0	3.844000e-002	2.882389e-002	0.0	4.474000e-002	3.073692e-002	0.0	5.149000e-002	3.258845e-002	0.0	5.869000e-002	3.437727e-002	0.0	6.633000e-002	3.609925e-002	0.0	7.440000e-002	3.775053e-002	0.0	8.290000e-002	3.932928e-002	0.0	9.181000e-002	4.083014e-002	0.0	1.011300e-001	4.225172e-002	0.0	1.108500e-001	4.359119e-002	0.0	1.209500e-001	4.484507e-002	0.0	1.314400e-001	4.601416e-002	0.0	1.422900e-001	4.709511e-002	0.0	1.534900e-001	4.808776e-002	0.0	1.650400e-001	4.899330e-002	0.0	1.769300e-001	4.981245e-002	0.0	1.891400e-001	5.054597e-002	0.0	2.016600e-001	5.119599e-002	0.0	2.144700e-001	5.176469e-002	0.0	2.275700e-001	5.225563e-002	0.0	2.409400e-001	5.267188e-002	0.0	2.545700e-001	5.301726e-002	0.0	2.684500e-001	5.329580e-002	0.0	2.825500e-001	5.351138e-002	0.0	2.968700e-001	5.366856e-002	0.0	3.114000e-001	5.377161e-002	0.0	3.261100e-001	5.382469e-002	0.0	3.409900e-001	5.383198e-002	0.0	3.560400e-001	5.379738e-002	0.0	3.712300e-001	5.372454e-002	0.0	3.865400e-001	5.361682e-002	0.0	4.019700e-001	5.347699e-002	0.0	4.175000e-001	5.330749e-002	0.0	4.331100e-001	5.311024e-002	0.0	4.487800e-001	5.288659e-002	0.0	4.645100e-001	5.263692e-002	0.0	4.802700e-001	5.236135e-002	0.0	4.960500e-001	5.205893e-002	0.0	5.118400e-001	5.172782e-002	0.0	5.276100e-001	5.136573e-002	0.0	5.433600e-001	5.096875e-002	0.0	5.590600e-001	5.053270e-002	0.0	5.747100e-001	5.005155e-002	0.0	5.902800e-001	4.951911e-002	0.0	6.057600e-001	4.892753e-002	0.0	6.211300e-001	4.826838e-002	0.0	6.363800e-001	4.753195e-002	0.0	6.515000e-001	4.670780e-002	0.0	6.664700e-001	4.578563e-002	0.0	6.812700e-001	4.475535e-002	0.0	6.958900e-001	4.360686e-002	0.0	7.103200e-001	4.233110e-002	0.0	7.245300e-001	4.092285e-002	0.0	7.385200e-001	3.937688e-002	0.0	7.522800e-001	3.769209e-002	0.0	7.657800e-001	3.587421e-002	0.0	7.790100e-001	3.393157e-002	0.0	7.919700e-001	3.187594e-002	0.0	8.046400e-001	2.972737e-002	0.0	8.170100e-001	2.750952e-002	0.0	8.290500e-001	2.525427e-002	0.0	8.407700e-001	2.298943e-002	0.0	8.521600e-001	2.074792e-002	0.0	8.631800e-001	1.856822e-002	0.0	8.738500e-001	1.647407e-002	0.0	8.841500e-001	1.449208e-002	0.0	8.940600e-001	1.264235e-002	0.0	9.035800e-001	1.093467e-002	0.0	9.127000e-001	9.376019e-003	0.0	9.214000e-001	7.973092e-003	0.0	9.296900e-001	6.729006e-003	0.0	9.375400e-001	5.655352e-003	0.0	9.449600e-001	4.757816e-003	0.0	9.519400e-001	4.038970e-003	0.0	9.584700e-001	3.487649e-003	0.0	9.645400e-001	3.074452e-003	0.0	9.701500e-001	2.753696e-003	0.0	9.752800e-001	2.475148e-003	0.0	9.799500e-001	2.194114e-003	0.0	9.841300e-001	1.887613e-003	0.0	9.878400e-001	1.551649e-003	0.0	9.910500e-001	1.204447e-003	0.0	9.937800e-001	8.682489e-004	0.0	9.960200e-001	5.680870e-004	0.0	9.977600e-001	3.234605e-004	0.0	9.990000e-001	1.451032e-004	0.0	9.997500e-001	3.632658e-005	0.0	1.000000e+000	0.000000e+000	0.0	1.984229e+001	2.506660e+000	0.0	1.937166e+001	4.973800e+000	0.0	1.859553e+001	7.362490e+000	0.0	1.752613e+001	9.635070e+000	0.0	1.618034e+001	1.175571e+001	0.0	1.457937e+001	1.369094e+001	0.0	1.274848e+001	1.541027e+001	0.0	1.071654e+001	1.688656e+001	0.0	8.515590e+000	1.809654e+001	0.0	6.180340e+000	1.902113e+001	0.0	3.747630e+000	1.964575e+001	0.0	1.255810e+000	1.996053e+001	0.0	-1.255810e+000	1.996053e+001	0.0	-3.747630e+000	1.964574e+001	0.0	-6.180340e+000	1.902113e+001	0.0	-8.515590e+000	1.809654e+001	0.0	-1.071654e+001	1.688656e+001	0.0	-1.274848e+001	1.541026e+001	0.0	-1.457937e+001	1.369094e+001	0.0	-1.618034e+001	1.175570e+001	0.0	-1.752613e+001	9.635070e+000	0.0	-1.859553e+001	7.362490e+000	0.0	-1.937166e+001	4.973800e+000	0.0	-1.984229e+001	2.506660e+000	0.0	-2.000000e+001	0.000000e+000	0.0	-1.984229e+001	-2.506670e+000	0.0	-1.937166e+001	-4.973800e+000	0.0	-1.859553e+001	-7.362490e+000	0.0	-1.752613e+001	-9.635080e+000	0.0	-1.618034e+001	-1.175571e+001	0.0	-1.457937e+001	-1.369094e+001	0.0	-1.274848e+001	-1.541027e+001	0.0	-1.071653e+001	-1.688656e+001	0.0	-8.515580e+000	-1.809654e+001	0.0	-6.180340e+000	-1.902113e+001	0.0	-3.747620e+000	-1.964575e+001	0.0	-1.255810e+000	-1.996053e+001	0.0	1.255810e+000	-1.996053e+001	0.0	3.747630e+000	-1.964574e+001	0.0	6.180340e+000	-1.902113e+001	0.0	8.515590e+000	-1.809654e+001	0.0	1.071654e+001	-1.688656e+001	0.0	1.274848e+001	-1.541026e+001	0.0	1.457937e+001	-1.369094e+001	0.0	1.618034e+001	-1.175570e+001	0.0	1.752614e+001	-9.635070e+000	0.0	1.859553e+001	-7.362490e+000	0.0	1.937166e+001	-4.973790e+000	0.0	1.984229e+001	-2.506660e+000	0.0	2.000000e+001	0.000000e+000	0.0	6.053442e-002	-4.637566e-002	0.0	6.603068e-001	-5.578751e-002	0.0	4.256552e-001	6.760803e-002	0.0	6.898377e-001	5.724238e-002	0.0	3.793497e-001	-7.323151e-002	0.0	9.994612e-001	-7.189221e-004	0.0	9.985467e-001	-1.313429e-003	0.0	7.738042e-001	-4.118751e-002	0.0	6.899630e-001	-5.242842e-002	0.0	-1.277424e-003	6.240942e-003	0.0	7.468194e-001	-4.504086e-002	0.0	5.833045e-001	6.396102e-002	0.0	9.927892e-001	-3.642376e-003	0.0	9.898951e-001	-4.581225e-003	0.0	5.988795e-001	6.328264e-002	0.0	7.188414e-001	-4.881511e-002	0.0	-1.475452e-003	8.086655e-004	0.0	9.865117e-001	-5.630628e-003	0.0	9.826470e-001	-6.781011e-003	0.0	-1.260099e-003	-5.636243e-003	0.0	6.452282e-001	-5.735356e-002	0.0	8.243548e-001	-3.362068e-002	0.0	7.996757e-001	-3.736555e-002	0.0	3.486199e-001	6.771130e-002	0.0	8.477166e-001	-3.002994e-002	0.0	2.474336e-001	6.540661e-002	0.0	8.697024e-001	-2.663647e-002	0.0	1.012713e-002	2.047060e-002	0.0	8.902113e-001	-2.351817e-002	0.0	7.679772e-002	-5.168247e-002	0.0	9.091791e-001	-2.073187e-002	0.0	-1.785581e-003	-2.772590e-003	0.0	9.421905e-001	-1.586705e-002	0.0	9.265324e-001	-1.823962e-002	0.0	1.791267e-002	-2.588064e-002	0.0	4.259495e-001	-7.160488e-002	0.0	8.588903e-001	-2.830152e-002	0.0	9.560896e-001	-1.338647e-002	0.0	9.782925e-001	-8.042112e-003	0.0	9.681471e-001	-1.071254e-002	0.0	1.581610e-001	-6.785644e-002	0.0	8.998942e-001	-2.208302e-002	0.0	7.604460e-001	-4.311700e-002	0.0	9.971245e-001	-2.055212e-003	0.0	5.991825e-001	-6.155642e-002	0.0	4.416435e-001	-7.096047e-002	0.0	5.364701e-001	-6.605117e-002	0.0	4.731971e-001	-6.952897e-002	0.0	5.048413e-001	-6.790052e-002	0.0	4.890070e-001	-6.873980e-002	0.0	1.247710e-001	-6.286871e-002	0.0	2.774834e-002	-3.189786e-002	0.0	3.947909e-001	-7.274413e-002	0.0	4.604489e-002	-4.074
[...]
POINT_DATA 5233

SCALARS Density float 1
LOOKUP_TABLE default
1.188512e+000	1.167430e+000	1.154775e+000	1.145317e+000	1.137412e+000	1.129691e+000	1.120206e+000	1.107878e+000	1.092059e+000	1.073253e+000	1.053191e+000	1.035281e+000	1.023408e+000	1.019451e+000	1.022469e+000	1.029642e+000	1.037905e+000	1.044834e+000	1.049130e+000	1.050533e+000	1.049365e+000	1.046232e+000	1.041768e+000	1.036550e+000	1.030961e+000	1.025234e+000	1.019430e+000	1.013500e+000	1.007347e+000	1.000861e+000	9.939689e-001	9.866435e-001	9.788849e-001	9.708133e-001	9.625846e-001	9.544054e-001	9.465183e-001	9.391101e-001	9.324140e-001	9.265726e-001	9.217157e-001	9.178874e-001	9.150742e-001	9.131912e-001	9.121052e-001	9.116501e-001	9.116374e-001	9.118690e-001	9.121399e-001	9.123134e-001	9.123954e-001	9.125204e-001	9.125647e-001	9.117984e-001	9.097215e-001	9.086073e-001	9.137982e-001	9.252830e-001	9.234173e-001	8.736379e-001	7.816118e-001	7.281351e-001	7.233215e-001	7.304097e-001	7.354147e-001	7.381809e-001	7.415795e-001	7.464672e-001	7.524868e-001	7.593755e-001	7.673184e-001	7.766683e-001	7.876081e-001	7.999506e-001	8.133281e-001	8.274979e-001	8.425338e-001	8.586482e-001	8.757972e-001	8.938953e-001	9.129281e-001	9.327967e-001	9.534893e-001	9.749528e-001	9.971637e-001	1.020133e+000	1.043810e+000	1.068228e+000	1.093488e+000	1.119531e+000	1.146480e+000	1.174545e+000	1.203642e+000	1.233965e+000	1.265237e+000	1.296986e+000	1.324986e+000	1.348182e+000	1.347430e+000	1.331135e+000	1.319914e+000	1.278889e+000	1.197198e+000	1.125394e+000	1.059406e+000	1.002646e+000	9.566487e-001	9.202196e-001	8.909479e-001	8.670141e-001	8.469952e-001	8.297848e-001	8.148188e-001	8.014504e-001	7.893776e-001	7.785191e-001	7.685892e-001	7.592404e-001	7.502668e-001	7.415461e-001	7.331963e-001	7.254979e-001	7.185928e-001	7.122369e-001	7.061141e-001	7.001560e-001	6.947005e-001	6.898386e-001	6.854278e-001	6.812765e-001	6.775039e-001	6.743299e-001	6.719398e-001	6.702974e-001	6.692961e-001	6.687767e-001	6.686234e-001	6.687597e-001	6.691025e-001	6.696221e-001	6.703182e-001	6.712146e-001	6.722988e-001	6.734472e-001	6.745351e-001	6.755897e-001	6.766184e-001	6.777068e-001	6.787659e-001	6.798826e-001	6.810008e-001	6.823144e-001	6.839885e-001	6.854756e-001	6.819572e-001	6.696434e-001	6.527549e-001	6.954138e-001	8.390425e-001	9.513100e-001	9.524826e-001	9.295894e-001	9.165698e-001	9.130663e-001	9.127119e-001	9.144177e-001	9.194575e-001	9.280843e-001	9.393771e-001	9.525101e-001	9.668841e-001	9.819823e-001	9.973343e-001	1.012449e+000	1.026935e+000	1.040475e+000	1.052798e+000	1.063822e+000	1.073530e+000	1.082088e+000	1.089676e+000	1.096490e+000	1.102512e+000	1.107506e+000	1.110911e+000	1.112064e+000	1.110397e+000	1.105810e+000	1.099021e+000	1.091722e+000	1.086170e+000	1.084449e+000	1.087776e+000	1.095965e+000	1.107580e+000	1.121529e+000	1.136830e+000	1.154173e+000	1.174202e+000	1.165806e+000	9.995391e-001	9.997800e-001	9.997490e-001	9.996331e-001	9.995281e-001	9.994024e-001	9.992525e-001	9.990658e-001	9.988641e-001	9.987179e-001	9.986319e-001	9.986902e-001	9.988617e-001	9.992041e-001	9.994965e-001	9.997417e-001	9.998858e-001	9.999813e-001	1.000048e+000	1.000082e+000	1.000105e+000	1.000117e+000	1.000128e+000	1.000138e+000	1.000147e+000	1.000158e+000	1.000174e+000	1.000196e+000	1.000224e+000	1.000268e+000	1.000318e+000	1.000401e+000	1.000484e+000	1.000626e+000	1.000763e+000	1.000937e+000	1.001128e+000	1.001218e+000	1.001257e+000	1.001178e+000	1.001083e+000	1.000931e+000	1.000789e+000	1.000647e+000	1.000514e+000	1.000366e+000	1.000256e+000	1.000212e+000	9.998456e-001	9.993767e-001	9.791144e-001	9.331811e-001	6.763898e-001	9.277266e-001	9.223351e-001	1.169840e+000	1.158976e+000	9.912965e-001	9.461023e-001	1.260835e+000	9.766144e-001	6.803720e-001	1.130046e+000	1.121238e+000	6.641212e-001	9.610930e-001	1.327742e+000	1.110886e+000	1.098349e+000	1.334095e+000	9.279009e-001	1.016462e+000	1.004527e+000	6.721408e-001	1.027560e+000	6.759985e-001	1.037780e+000	9.854462e-001	1.045448e+000	9.377803e-001	1.047365e+000	1.344553e+000	1.030675e+000	1.041175e+000	1.147081e+000	9.121901e-001	1.032838e+000	1.029925e+000	1.083508e+000	1.050957e+000	8.063141e-001	1.047345e+000	9.841264e-001	1.147431e+000	9.176406e-001	9.139289e-001	9.143607e-001	9.141945e-001	9.143538e-001	9.142498e-001	8.490104e-001	1.095170e+000	9.113113e-001	1.023328e+000	9.097333e-001	7.418271e-001	9.152907e-001	1.070477e+000	7.325128e-001	1.035799e+000	8.197687e-001	7.738932e-001	9.182845e-001	8.817335e-001	9.149668e-001	7.940215e-001	9.201366e-001	1.042114e+000	1.120708e+000	1.138448e+000	1.231687e+000	9.160117e-001	1.045270e+000	1.027975e+000	1.067110e+000	1.202046e+000	1.022091e+000	7.470892e-001	9.144947e-001	9.688750e-001	9.980971e-001	8.648669e-001	7.585088e-001	9.159634e-001	9.392929e-001	1.000875e+000	1.261118e+000	1.174375e+000	9.348178e-001	7.832159e-001	1.200758e+000	7.521766e-001	8.995859e-001	7.262183e-001	7.435669e-001	9.142670e-001	9.534239e-001	1.308773e+000	1.316136e+000	6.849071e-001	1.336313e+000	8.671984e-001	8.028381e-001	8.310696e-001	7.334082e-001	6.753817e-001	1.130118e+000	6.834522e-001	6.795790e-001	1.095582e+000	1.104311e+000	1.067159e+000	6.807884e-001	6.773946e-001	6.734408e-001	1.096152e+000	1.083434e+000	7.696711e-001	1.091573e+000	1.106563e+000	1.104746e+000	7.503773e-001	7.908821e-001	6.721987e-001	6.741698e-001	7.004402e-001	6.717068e-001	6.784772e-001	6.743829e-001	7.125283e-001	7.260771e-001	7.555594e-001	6.903720e-001	6.818790e-001	9.719831e-001	6.877023e-001	9.248205e-001	9.207449e-001	9.660443e-001	9.413354e-001	1.021727e+000	9.940092e-001	1.075791e+000	1.046605e+000	1.106680e+000	1.090220e+000	1.100325e+000	1.034651e+000	1.057456e+000	9.798293e-001	1.008091e+000	9.316108e-001	9.530672e-001	9.216147e-001	9.215112e-001	9.396107e-001	9.473677e-001	6.869288e-001	6.610579e-001	6.858934e-001	6.785734e-001	7.062275e-001	6.952319e-001	8.161312e-001	7.192242e-001	9.475300e-001	8.479472e-001	7.657492e-001	1.083319e+000	1.037782e+000	1.010626e+000	8.261093e-001	9.143750e-001	1.142077e+000	8.895619e-001	1.030579e+000	7.598394e-001	7.799312e-001	6.729412e-001	7.414982e-001	1.089864e+000	1.091596e+000	6.718135e-001	1.097173e+000	1.105927e+000	6.718347e-001	6.726674e-001	1.101098e+000	1.187061e+000	1.145079e+000	1.159270e+000	9.235443e-001	1.046544e+000	1.117172e+000	6.820605e-001	1.290038e+000	1.202654e+000	9.580630e-001	8.340261e-001	7.399073e-001	7.925473e-001	1.240178e+000	1.286343e+000	7.443449e-001	9.531490e-001	1.044567e+000	1.221906e+000	6.856963e-001	9.464238e-001	9.955932e-001	1.112498e+000	7.863232e-001	1.029439e+000	1.019158e+000	9.239943e-001	1.316247e+000	7.736348e-001	1.169046e+000	1.041815e+000	8.273524e-001	9.602548e-001	9.346694e-001	9.158025e-001	9.429273e-001	9.162168e-001	1.044032e+000	1.001874e+000	1.044067e+000	9.360837e-001	9.602324e-001	1.017218e+000	7.514184e-001	9.401040e-001	7.137008e-001	1.051355e+000	1.098356e+000	6.750645e-001	6.848606e-001	1.102132e+000	1.060890e+000	1.104355e+000	1.101683e+000	1.093838e+000	6.842698e-001	6.752703e-001	6.877418e-001	7.606258e-001	9.402125e-001	7.821649e-001	1.002998e+000	7.273532e-001	8.317352e-001	1.097404e+000	1.112834e+000	1.069455e+000	8.140721e-001	1.198498e+000	1.134589e+000	1.122970e+000	1.090073e+000	1.190801e+000	1.248453e+000	1.335301e+000	1.327610e+000	1.143396e+000	1.204521e+000	9.828290e-001	1.148328e+000	1.130316e+000	6.775958e-001	9.174160e-001	1.101940e+000	1.038278e+000	6.705419e-001	1.121773e+000	1.331614e+000	9.150602e-001	6.767857e-001	1.024430e+000	6.776415e-001	1.034117e+000	1.041674e+000	9.625381e-001	1.045040e+000	1.042657e+000	1.035238e+000	1.094231e+000	1.036538e+000	1.051135e+000	1.089891e+000	8.564858e-001	9.820401e-001	9.889646e-001	1.138923e+000	9.160107e-001	9.162537e-001	9.165657e-001	1.118560e+000	9.121140e-001	9.132886e-001	8.805720e-001	1.047772e+000	1.039765e+000	1.036826e+000	8.416093e-001	9.058104e-001	9.180006e-001	9.228880e-001	1.063330e+000	1.076745e+000	9.675056e-001	9.748576e-001	8.885196e-001	8.720835e-001	9.190180e-001	9.206007e-001	1.025522e+000	1.003883e+000	1.195165e+000	9.288259e-001	9.274656e-001	8.021733e-001	7.916277e-001	7.659799e-001	7.593913e-001	7.346900e-001	7.380403e-001	7.542781e-001	1.316728e+000	1.274487e+000	8.476659e-001	1.094738e+000	6.863008e-001	6.833111e-001	6.819411e-001	6.806707e-001	1.095036e+000	1.099925e+000	1.089696e+000	6.795853e-001	6.785074e-001	6.761065e-001	1.083829e+000	1.101049e+000	8.044544e-001	8.174213e-001	6.814820e-001	6.792629e-001	7.202351e-001	7.351228e-001	7.430451e-001	9.663915e-001	9.313864e-001	9.294377e-001	9.549388e-001	1.004569e+000	1.077067e+000	1.040807e+000	1.029376e+000	9.917006e-001	9.788090e-001	9.447434e-001	9.366534e-001	9.299938e-001	9.322808e-001	9.710731e-001	8.854512e-001	6.884397e-001	6.880520e-001	7.099763e-001	6.618936e-001	6.917992e-001	6.965950e-001	7.019017e-001	7.076913e-001	9.672159e-001	8.656906e-001	8.861997e-001	1.007892e+000	1.013657e+000	9.168514e-001	9.170826e-001	1.140309e+000	9.094313e-001	7.706580e-001	7.813259e-001	6.757077e-001	6.764711e-001	6.755438e-001	6.751564e-001	1.098492e+000	1.094635e+000	9.259701e-001	9.298990e-001	1.070648e+000	1.298686e+000	7.499356e-001	1.312129e+000	9.162857e-001	7.487856e-001	9.998374e-001	9.204460e-001	1.043036e+000	1.103625e+000	1.099062e+000	1.097893e+000	1.138974e+000	1.110404e+000	1.146903e+000	1.164350e+000	1.138887e+000	1.186473e+000	1.140093e+000	1.298656e+000	9.308132e-001	1.041922e+000	1.114320e+000	6.865518e-001	1.159504e+000	1.236124e+000	9.602954e-001	1.280617e+000	9.670063e-001	1.163637e+000	1.034965e+000	1.212123e+000	8.351736e-001	1.030923e+000	9.537363e-001	1.123051e+000	1.187960e+000	1.095467e+000	6.881767e-001	1.097477e+000	9.701863e-001	1.118071e+000	6.866515e-001	6.846993e-001	6.790328e-001	7.290848e-001	8.184778e-001	1.156445e+000	1.295368e+000	1.221035e+000	9.838746e-001	1.265091e+000	1.052640e+000	9.490825e-001	1.322409e+000	8.356247e-001	9.178990e-001	1.116721e+000	1.054803e+000	1.014043e+000	9.679429e-001	9.512111e-001	1.096368e+000	1.098185e+000	1.063528e+000	1.055122e+000	6.798306e-001	6.825639e-001	6.942658e-001	7.720001e-001	9.418770e-001	9.475828e-001	7.908268e-001	1.017661e+000	7.362496e-001	1.095898e+000	1.126346e+000	1.095618e+000	1.181991e+000	1.258976e+000	1.317964e+000	1.093657e+000	1.174602e+000	1.165863e+000	1.062114e+000	1.105268e+000	6.776693e-001	9.174340e-001	6.794781e-001	1.021602e+000	1.026425e+000	1.038411e+000	1.041092e+000	9.875133e-001	9.680447e-001	1.042780e+000	1.043442e+000	1.041591e+000	1.045635e+000	1.095299e+000	9.873267e-001	9.937373e-001	1.130806e+000	9.182789e-001	9.188189e-001	9.151881e-001	9.164269e-001	1.071477e+000	1.040676e+000	1.040213e+000	8.648490e-001	8.498713e-001	9.212034e-001	9.222723e-001	1.073052e+000	1.084335e+000	9.738798e-001	9.807045e-001	9.132159e-001	8.961844e-001	8.800969e-001	9.238669e-001	9.260126e-001	1.049906e+000	1.028556e+000	1.007623e+000	9.112887e-001	9.310144e-001	9.232737e-001	8.228441e-001	8.112881e-001	8.006224e-001	7.818849e-001	7.739161e-001	7.424765e-001	7.610836e-001	7.671284e-001	8.642210e-001	6.849140e-001	6.835409e-001	1.096927e+000	6.822411e-001	6.811780e-001	6.801953e-001	6.789970e-001	1.083544e+000	8.323769e-001	8.475875e-001	6.872946e-001	6.905743e-001	7.442785e-001	7.534398e-001	7.626776e-001	9.383523e-001	1.077755e+000	1.071014e+000	1.045898e+000	1.035910e+000	1.025391e+000	1.002314e+000	9.906730e-001	9.790217e-001	9.579244e-001	9.490035e-001	9.423716e-001	9.376715e-001	9.390421e-001	9.419052e-001	9.579080e-001	6.895112e-001	6.893245e-001	8.264618e-001	6.924659e-001	6.678678e-001	6.986034e-001	7.034049e-001	7.091201e-001	7.154011e-001	7.222432e-001	8.827586e-001	9.038750e-001	1.005651e+000	1.011243e+000	1.016516e+000	9.193596e-001	9.199051e-001	9.276657e-001	9.539787e-001	7.822832e-001	7.936361e-001	8.056724e-001	6.810035e-001	6.787408e-001	6.786138e-001	6.786377e-001	1.095602e+000	1.092592e+000	1.088565e+000	9.288983e-001	9.324683e-001	9.368499e-001	7.617526e-001	7.561515e-001	1.292892e+000	9.379824e-001	1.120499e+000	1.096767e+000	9.239452e-001	1.277424e+000	1.146315e+000	1.042947e+000	1.043097e+000	1.092357e+000	1.107594e+000	6.890353e-001	1.276254e+000	1.029166e+000	1.222360e+000	1.094983e+000	1.113663e+000	1.204796e+000	9.747073e-001	1.171492e+000	1.167670e+000	1.177355e+000	1.003766e+000	8.457565e-001	1.135926e+000	9.175573e-001	9.556758e-001	9.196549e-001	7.577228e-001	1.099039e+000	6.870742e-001	1.094174e+000	1.092638e+000	9.702694e-001	7.472263e-001	6.947888e-001	1.107698e+000	8.471452e-001	1.032170e+000	1.134985e+000	1.102648e+000	1.130813e+000	1.070854e+000	1.157258e+000	9.604931e-001	1.243003e+000	9.672168e-001	9.732310e-001	1.179416e+000	1.115715e+000	1.201286e+000	1.011015e+000	6.901701e-001	6.866960e-001	1.243307e+000	1.062497e+000	9.665828e-001	1.058044e+000	6.851930e-001	6.889599e-001	6.914304e-001	9.487012e-001	9.549757e-001	1.095638e+000	1.097536e+000	1.134812e+000	1.262201e+000	1.300587e+000	1.113903e+000	1.062038e+000	1.099098e+000	6.792864e-001	1.023860e+000	1.028211e+000	1.035668e+000	1.038449e+000	9.922983e-001	9.737306e-001	1.040586e+000	1.042007e+000	1.042719e+000	1.048970e+000	1.054579e+000	9.919934e-001	9.980162e-001	1.123435e+000	9.202998e-001	9.210289e-001	9.174600e-001	9.186964e-001	1.043663e+000	1.045405e+000	8.742048e-001	8.588795e-001	9.257204e-001	1.080298e+000	1.089898e+000	9.797835e-001	9.867022e-001	9.209405e-001	9.046872e-001	8.894429e-001	9.266849e-001	9.294472e-001	1.072226e+000	1.051571e+000	1.030962e+000	1.011197e+000	8.775114e-001	9.219283e-001	9.268712e-001	9.211129e-001	8.337033e-001	8.221447e-001	8.113183e-001	8.011172e-001	7.919991e-001	8.029260e-001	7.622514e-001	7.837264e-001	6.869709e-001	1.095306e+000	1.095228e+000	6.857792e-001	6.845319e-001	6.836261e-001	6.828713e-001	6.825622e-001	8.633400e-001	8.810321e-001	6.982920e-001	7.027378e-001	7.552887e-001	7.643936e-001	7.746343e-001	7.849399e-001	1.077701e+000	1.071870e+000	1.065432e+000	1.049974e+000	1.041358e+000	1.032241e+000	1.021324e+000	1.001597e+000	9.901478e-001	9.792617e-001	9.603658e-001	9.536221e-001	9.465368e-001	9.441731e-001	9.426024e-001	9.462261e-001	9.510600e-001	6.910387e-001	6.906582e-001	9.190903e-001	7.771431e-001	6.972097e-001	6.738780e-001	7.071181e-001	7.123918e-001	7.176691e-001	7.242293e-001	7.311658e-001	7.389984e-001	8.996531e-001	9.203675e-001	1.008997e+000	1.014591e+000	1.019298e+000	9.218245e-001	9.221714e-001	9.235064e-001	9.442058e-001	9.701173e-001	9.979508e-001	7.952473e-001	8.065800e-001	8.194239e-001	8.328660e-001	6.824868e-001	6.828328e-001	6.832850e-001	6.839196e-001	1.082657e+000	1.090164e+000	1.086945e+000	9.314474e-001	9.354889e-001	9.387976e-001	9.441181e-001	7.766992e-001	7.706836e-001	7.640238e-001	1.171004e+000	1.117156e+000	1.069684e+000	1.161121e+000	1.190854e+000	9.757775e-001	9.457522e-001	1.209634e+000	1.095999e+000	1.244955e+000	1.110747e+000	8.583745e-001	7.683542e-001	1.068632e+000	1.162486e+000	1.251648e+000	1.302336e+000	1.304037e+000	1.292666e+000	1.258218e+000	1.126209e+000	6.932701e-001	1.077575e+000	1.109495e+000	1.045871e+000	1.004063e+000	9.203846e-001	1.109750e+000	1.077605e+000	1.087641e+000	6.906841e-001	6.923670e-001	9.678685e-001	9.669532e-001	6.912791e-001	9.275440e-001	6.900437e-001	1.105112e+000	9.626600e-001	1.150612e+000	1.098123e+000	1.300032e+000	1.171090e+000	1.161192e+000	1.044156e+000	1.091758e+000	1.272250e+000	1.038596e+000	1.227855e+000	1.091404e+000	1.191325e+000	1.161734e+000	1.165924e+000	1.151250e+000	7.890114e-001	7.756773e-001	1.101116e+000	6.788957e-001	1.089899e+000	1.101865e+000	9.641780e-001	1.222968e+000	6.948289e-001	6.993313e-001	7.016743e-001	9.530608e-001	1.099178e+000	1.130887e+000	1.280460e+000	1.131732e+000	1.026093e+000	1.029675e+000	1.032966e+000	1.036263e+000	9.797965e-001	9.976873e-001	1.038599e+000	1.040699e+000	1.041944e+000	1.043424e+000	1.056286e+000	1.062448e+000	9.939516e-001	1.116488e+000	9.213982e-001	9.228552e-001	9.190724e-001	9.203791e-001	1.048176e+000	1.051450e+000	8.833260e-001	8.677823e-001	1.085821e+000	1.094014e+000	9.858267e-001	9.289510e-001	9.126491e-001	9.010388e-001	9.309370e-001	1.072747e+000	1.053307e+000	1.033777e+000	1.015694e+000	8.384802e-001	8.969664e-001	9.211699e-001	9.273437e-001	9.245083e-001	8.440159e-001	8.348063e-001	8.210776e-001	8.131317e-001	8.013174e-001	1.094527e+000	1.093503e+000	1.092554e+000	6.889747e-001	6.883205e-001	6.869580e-001	6.867478e-001	6.858795e-001	8.794344e-001	8.976503e-001	7.074917e-001	7.106334e-001	7.746022e-001	7.869764e-001	7.987128e-001	1.071738e+000	1.066684e+000	1.059648e+000	1.053102e+000	1.044888e+000	1.037192e+000	1.027478e+000	1.013342e+000	9.999715e-001	9.840540e-001	9.523344e-001	9.473413e-001	9.643111e-001	8.131064e-001	6.899839e-001	7.175568e-001	7.211624e-001	7.290100e-001	7.331660e-001	7.423708e-001	7.501390e-001	7.589719e-001	9.168243e-001	9.367622e-001	1.012524e+000	1.017415e+000	1.021412e+000	9.241740e-001	9.252469e-001	9.592635e-001	9.847233e-001	1.010676e+000	8.099010e-001	8.213720e-001	8.342838e-001	8.493226e-001	8.640909e-001	6.865274e-001	6.864217e-001	6.880407e-001	6.893047e-001	1.085043e+000	1.080670e+000	9.361013e-001	9.434975e-001	7.950150e-001	7.853758e-001	7.807644e-001	7.723861e-001	1.152864e+000	1.141588e+000	1.197231e+000	1.267790e+000	1.169874e+000	1.082511e+000	1.102551e+000	1.205297e+000	1.089116e+000	1.129158e+000	1.096933e+000	1.262339e+000	1.107857e+000	1.180185e+000	6.974245e-001	1.161168e+000	1.099591e+000	1.178814e+000	1.162483e+000	1.075505e+000	9.295869e-001	1.099177e+000	8.064657e-001	1.049599e+000	1.045775e+000	9.438648e-001	9.530656e-001	8.624077e-001	1.240560e+000	9.216520e-001	9.869509e-001	9.704105e-001	7.938114e-001	1.094117e+000	1.073097e+000	1.230303e+000	1.072702e+000	1.068878e+000	1.155275e+000	1.096290e+000	1.300649e+000	1.252737e+000	1.103949e+000	9.831231e-001	6.943660e-001	6.921746e-001	1.106537e+000	1.160466e+000	1.120317e+000	1.281848e+000	1.165043e+000	1.090942e+000	1.228167e+000	1.213353e+000	6.831632e-001	1.126355e+000	1.087558e+000	1.084733e+000	6.927178e-001	7.039717e-001	7.127357e-001	9.729252e-001	1.126762e+000	1.153590e+000	1.145275e+000	1.029236e+000	1.035169e+000	1.002904e+000	1.040097e+000	1.043227e+000	1.062767e+000	1.110695e+000	9.224249e-001	1.053262e+000	1.057473e+000	8.856949e-001	1.089686e+000	9.917297e-001	1.000132e+000	9.303974e-001	9.096105e-001	9.327367e-001	1.073232e+000	1.053958e+000	1.036035e+000	1.022431e+000	8.786301e-001	9.270603e-001	9.281735e-001	8.389465e-001	8.178412e-001	1.092352e+000	1.090786e+000	6.903991e-001	6.899777e-001	9.134870e-001	7.234033e-001	8.123717e-001	9.954501e-001	1.063280e+000	1.050559e+000	1.035985e+000	1.021744e+000	1.008830e+000	9.803670e-001	9.645557e-001	9.519944e-001	9.575136e-001	9.767990e-001	9.274663e-001	7.654555e-001	6.875867e-001	7.356494e-001	7.490385e-001	7.628042e-001	7.690382e-001	7.811523e-001	9.335877e-001	9.530123e-001	1.009145e+000	1.017149e+000	1.023676e+000	9.256086e-001	9.276287e-001	9.735412e-001	9.971715e-001	1.021811e+000	1.046443e+000	8.257157e-001	8.373848e-001	8.500742e-001	8.652657e-001	8.830761e-001	8.942702e-001	6.911671e-001	6.942805e-001	1.083291e+000	1.079329e+000	9.374039e-001	9.522241e-001	9.621763e-001	7.999621e-001	7.902542e-001	1.110562e+000	1.153798e+000	1.148644e+000	1.126080e+000	1.047994e+000	1.103344e+000	1.157706e+000	1.124315e+000	1.199609e+000	1.154536e+000	1.135518e+000	1.116298e+000	1.122675e+000	1.211105e+000	1.244396e+000	1.089444e+000	9.894863e-001	7.036080e-001	1.116587e+000	1.041995e+000	1.121535e+000	9.201309e-001	1.099489e+000	1.185399e+000	9.270908e-001	1.053931e+000	9.521779e-001	9.346083e-001	1.079883e+000	1.086109e+000	1.105051e+000	1.090102e+000	1.155625e+000	1.096593e+000	1.099544e+000	1.085435e+000	7.196452e-001	6.847693e-001	9.708568e-001	1.007771e+000	1.138025e+000	1.143754e+000	1.281153e+000	1.073790e+000	1.087341e+000	1.164874e+000	1.092531e+000	1.189818e+000	1.169939e+000	9.317207e-001	1.234471e+000	9.955103e-001	9.767291e-001	1.093989e+000	1.247187e+000	1.068085e+000	1.098846e+000	9.806793e-001	1.262404e+000	1.164782e+000	1.025373e+000	1.223919e+000	1.212438e+000	6.