# vtk DataFile Version 3.0
vtk output
ASCII
DATASET UNSTRUCTURED_GRID
POINTS 5233 float
9.997500e-001	-3.632805e-005	0.0	9.990000e-001	-1.451961e-004	0.0	9.977600e-001	-3.244805e-004	0.0	9.960200e-001	-5.736025e-004	0.0	9.937800e-001	-8.882209e-004	0.0	9.910500e-001	-1.259819e-003	0.0	9.878400e-001	-1.678058e-003	0.0	9.841300e-001	-2.136933e-003	0.0	9.799500e-001	-2.628458e-003	0.0	9.752800e-001	-3.158672e-003	0.0	9.701500e-001	-3.737183e-003	0.0	9.645400e-001	-4.386576e-003	0.0	9.584700e-001	-5.126927e-003	0.0	9.519400e-001	-5.976456e-003	0.0	9.449600e-001	-6.943686e-003	0.0	9.375400e-001	-8.027818e-003	0.0	9.296900e-001	-9.221410e-003	0.0	9.214000e-001	-1.051783e-002	0.0	9.127000e-001	-1.190575e-002	0.0	9.035800e-001	-1.338371e-002	0.0	8.940600e-001	-1.494945e-002	0.0	8.841500e-001	-1.660511e-002	0.0	8.738500e-001	-1.835581e-002	0.0	8.631800e-001	-2.020282e-002	0.0	8.521600e-001	-2.214555e-002	0.0	8.407700e-001	-2.418781e-002	0.0	8.290500e-001	-2.631933e-002	0.0	8.170100e-001	-2.853141e-002	0.0	8.046400e-001	-3.081524e-002	0.0	7.919700e-001	-3.315108e-002	0.0	7.790100e-001	-3.551974e-002	0.0	7.657800e-001	-3.789793e-002	0.0	7.522800e-001	-4.026467e-002	0.0	7.385200e-001	-4.259685e-002	0.0	7.245300e-001	-4.486899e-002	0.0	7.103200e-001	-4.706109e-002	0.0	6.958900e-001	-4.915729e-002	0.0	6.812700e-001	-5.114065e-002	0.0	6.664700e-001	-5.300101e-002	0.0	6.515000e-001	-5.473177e-002	0.0	6.363800e-001	-5.632869e-002	0.0	6.211300e-001	-5.779095e-002	0.0	6.057600e-001	-5.912140e-002	0.0	5.902800e-001	-6.032479e-002	0.0	5.747100e-001	-6.140661e-002	0.0	5.590600e-001	-6.237407e-002	0.0	5.433600e-001	-6.323367e-002	0.0	5.276100e-001	-6.399378e-002	0.0	5.118400e-001	-6.466089e-002	0.0	4.960500e-001	-6.524237e-002	0.0	4.802700e-001	-6.574362e-002	0.0	4.645100e-001	-6.617003e-002	0.0	4.487800e-001	-6.652592e-002	0.0	4.331100e-001	-6.681424e-002	0.0	4.175000e-001	-6.703760e-002	0.0	4.019700e-001	-6.719724e-002	0.0	3.865400e-001	-6.729362e-002	0.0	3.712300e-001	-6.732642e-002	0.0	3.560400e-001	-6.729465e-002	0.0	3.409900e-001	-6.719657e-002	0.0	3.261100e-001	-6.703019e-002	0.0	3.114000e-001	-6.679290e-002	0.0	2.968700e-001	-6.648177e-002	0.0	2.825500e-001	-6.609431e-002	0.0	2.684500e-001	-6.562768e-002	0.0	2.545700e-001	-6.507875e-002	0.0	2.409400e-001	-6.444574e-002	0.0	2.275700e-001	-6.372663e-002	0.0	2.144700e-001	-6.291977e-002	0.0	2.016600e-001	-6.202470e-002	0.0	1.891400e-001	-6.104013e-002	0.0	1.769300e-001	-5.996678e-002	0.0	1.650400e-001	-5.880519e-002	0.0	1.534900e-001	-5.755751e-002	0.0	1.422900e-001	-5.622549e-002	0.0	1.314400e-001	-5.480986e-002	0.0	1.209500e-001	-5.331264e-002	0.0	1.108500e-001	-5.173920e-002	0.0	1.011300e-001	-5.008900e-002	0.0	9.181000e-002	-4.836603e-002	0.0	8.290000e-002	-4.657270e-002	0.0	7.440000e-002	-4.470887e-002	0.0	6.633000e-002	-4.277832e-002	0.0	5.869000e-002	-4.077987e-002	0.0	5.149000e-002	-3.871403e-002	0.0	4.474000e-002	-3.658096e-002	0.0	3.844000e-002	-3.437696e-002	0.0	3.260000e-002	-3.210082e-002	0.0	2.723000e-002	-2.975144e-002	0.0	2.232000e-002	-2.731782e-002	0.0	1.790000e-002	-2.480866e-002	0.0	1.395000e-002	-2.220604e-002	0.0	1.049000e-002	-1.951575e-002	0.0	7.520000e-003	-1.673326e-002	0.0	5.040000e-003	-1.385470e-002	0.0	3.050000e-003	-1.087697e-002	0.0	1.560000e-003	-7.821098e-003	0.0	5.600000e-004	-4.677588e-003	0.0	6.000000e-005	-1.498269e-003	0.0	0.000000e+000	0.000000e+000	0.0	6.000000e-005	1.363201e-003	0.0	5.600000e-004	4.074651e-003	0.0	1.560000e-003	6.663516e-003	0.0	3.050000e-003	9.139838e-003	0.0	5.040000e-003	1.153580e-002	0.0	7.520000e-003	1.384859e-002	0.0	1.049000e-002	1.608949e-002	0.0	1.395000e-002	1.826712e-002	0.0	1.790000e-002	2.038835e-002	0.0	2.232000e-002	2.244996e-002	0.0	2.723000e-002	2.446693e-002	0.0	3.260000e-002	2.643140e-002	0.0	3.844000e-002	2.835111e-002	0.0	4.474000e-002	3.022512e-002	0.0	5.149000e-002	3.205219e-002	0.0	5.869000e-002	3.383305e-002	0.0	6.633000e-002	3.556506e-002	0.0	7.440000e-002	3.724530e-002	0.0	8.290000e-002	3.887247e-002	0.0	9.181000e-002	4.044113e-002	0.0	1.011300e-001	4.194950e-002	0.0	1.108500e-001	4.339391e-002	0.0	1.209500e-001	4.476960e-002	0.0	1.314400e-001	4.607612e-002	0.0	1.422900e-001	4.730816e-002	0.0	1.534900e-001	4.846371e-002	0.0	1.650400e-001	4.954212e-002	0.0	1.769300e-001	5.054214e-002	0.0	1.891400e-001	5.146238e-002	0.0	2.016600e-001	5.230299e-002	0.0	2.144700e-001	5.306408e-002	0.0	2.275700e-001	5.374752e-002	0.0	2.409400e-001	5.435441e-002	0.0	2.545700e-001	5.488678e-002	0.0	2.684500e-001	5.534680e-002	0.0	2.825500e-001	5.573620e-002	0.0	2.968700e-001	5.605760e-002	0.0	3.114000e-001	5.631300e-002	0.0	3.261100e-001	5.650384e-002	0.0	3.409900e-001	5.663155e-002	0.0	3.560400e-001	5.669701e-002	0.0	3.712300e-001	5.670035e-002	0.0	3.865400e-001	5.664139e-002	0.0	4.019700e-001	5.651930e-002	0.0	4.175000e-001	5.633285e-002	0.0	4.331100e-001	5.608062e-002	0.0	4.487800e-001	5.576116e-002	0.0	4.645100e-001	5.537268e-002	0.0	4.802700e-001	5.491437e-002	0.0	4.960500e-001	5.438559e-002	0.0	5.118400e-001	5.378641e-002	0.0	5.276100e-001	5.311879e-002	0.0	5.433600e-001	5.238470e-002	0.0	5.590600e-001	5.158879e-002	0.0	5.747100e-001	5.073569e-002	0.0	5.902800e-001	4.983292e-002	0.0	6.057600e-001	4.888818e-002	0.0	6.211300e-001	4.791070e-002	0.0	6.363800e-001	4.690973e-002	0.0	6.515000e-001	4.589465e-002	0.0	6.664700e-001	4.487525e-002	0.0	6.812700e-001	4.386052e-002	0.0	6.958900e-001	4.285742e-002	0.0	7.103200e-001	4.187111e-002	0.0	7.245300e-001	4.090586e-002	0.0	7.385200e-001	3.996132e-002	0.0	7.522800e-001	3.903509e-002	0.0	7.657800e-001	3.812321e-002	0.0	7.790100e-001	3.721756e-002	0.0	7.919700e-001	3.630660e-002	0.0	8.046400e-001	3.537769e-002	0.0	8.170100e-001	3.441538e-002	0.0	8.290500e-001	3.340447e-002	0.0	8.407700e-001	3.232603e-002	0.0	8.521600e-001	3.116353e-002	0.0	8.631800e-001	2.990693e-002	0.0	8.738500e-001	2.854500e-002	0.0	8.841500e-001	2.707820e-002	0.0	8.940600e-001	2.551601e-002	0.0	9.035800e-001	2.387224e-002	0.0	9.127000e-001	2.216574e-002	0.0	9.214000e-001	2.041541e-002	0.0	9.296900e-001	1.862643e-002	0.0	9.375400e-001	1.680259e-002	0.0	9.449600e-001	1.493338e-002	0.0	9.519400e-001	1.301808e-002	0.0	9.584700e-001	1.107537e-002	0.0	9.645400e-001	9.152055e-003	0.0	9.701500e-001	7.316623e-003	0.0	9.752800e-001	5.652684e-003	0.0	9.799500e-001	4.217221e-003	0.0	9.841300e-001	3.050909e-003	0.0	9.878400e-001	2.142296e-003	0.0	9.910500e-001	1.463459e-003	0.0	9.937800e-001	9.617474e-004	0.0	9.960200e-001	5.939228e-004	0.0	9.977600e-001	3.282401e-004	0.0	9.990000e-001	1.455387e-004	0.0	9.997500e-001	3.633348e-005	0.0	1.000000e+000	0.000000e+000	0.0	1.984229e+001	2.506660e+000	0.0	1.937166e+001	4.973800e+000	0.0	1.859553e+001	7.362490e+000	0.0	1.752613e+001	9.635070e+000	0.0	1.618034e+001	1.175571e+001	0.0	1.457937e+001	1.369094e+001	0.0	1.274848e+001	1.541027e+001	0.0	1.071654e+001	1.688656e+001	0.0	8.515590e+000	1.809654e+001	0.0	6.180340e+000	1.902113e+001	0.0	3.747630e+000	1.964575e+001	0.0	1.255810e+000	1.996053e+001	0.0	-1.255810e+000	1.996053e+001	0.0	-3.747630e+000	1.964574e+001	0.0	-6.180340e+000	1.902113e+001	0.0	-8.515590e+000	1.809654e+001	0.0	-1.071654e+001	1.688656e+001	0.0	-1.274848e+001	1.541026e+001	0.0	-1.457937e+001	1.369094e+001	0.0	-1.618034e+001	1.175570e+001	0.0	-1.752613e+001	9.635070e+000	0.0	-1.859553e+001	7.362490e+000	0.0	-1.937166e+001	4.973800e+000	0.0	-1.984229e+001	2.506660e+000	0.0	-2.000000e+001	0.000000e+000	0.0	-1.984229e+001	-2.506670e+000	0.0	-1.937166e+001	-4.973800e+000	0.0	-1.859553e+001	-7.362490e+000	0.0	-1.752613e+001	-9.635080e+000	0.0	-1.618034e+001	-1.175571e+001	0.0	-1.457937e+001	-1.369094e+001	0.0	-1.274848e+001	-1.541027e+001	0.0	-1.071653e+001	-1.688656e+001	0.0	-8.515580e+000	-1.809654e+001	0.0	-6.180340e+000	-1.902113e+001	0.0	-3.747620e+000	-1.964575e+001	0.0	-1.255810e+000	-1.996053e+001	0.0	1.255810e+000	-1.996053e+001	0.0	3.747630e+000	-1.964574e+001	0.0	6.180340e+000	-1.902113e+001	0.0	8.515590e+000	-1.809654e+001	0.0	1.071654e+001	-1.688656e+001	0.0	1.274848e+001	-1.541026e+001	0.0	1.457937e+001	-1.369094e+001	0.0	1.618034e+001	-1.175570e+001	0.0	1.752614e+001	-9.635070e+000	0.0	1.859553e+001	-7.362490e+000	0.0	1.937166e+001	-4.973790e+000	0.0	1.984229e+001	-2.506660e+000	0.0	2.000000e+001	0.000000e+000	0.0	6.060161e-002	-4.878499e-002	0.0	6.605288e-001	-6.723585e-002	0.0	4.256658e-001	7.050888e-002	0.0	6.896385e-001	5.687191e-002	0.0	3.790580e-001	-8.137085e-002	0.0	9.994568e-001	-7.394976e-004	0.0	9.985319e-001	-1.337899e-003	0.0	7.741930e-001	-4.868713e-002	0.0	6.902514e-001	-6.320549e-002	0.0	-1.439677e-003	6.228618e-003	0.0	7.471933e-001	-5.380059e-002	0.0	5.833626e-001	6.456044e-002	0.0	9.927374e-001	-3.581284e-003	0.0	9.898249e-001	-4.422276e-003	0.0	5.989182e-001	6.356752e-002	0.0	7.191817e-001	-5.868556e-002	0.0	-1.645154e-003	6.718789e-004	0.0	9.864197e-001	-5.315328e-003	0.0	9.825314e-001	-6.245950e-003	0.0	-1.578964e-003	-7.147807e-003	0.0	6.454136e-001	-6.904629e-002	0.0	8.247099e-001	-3.848154e-002	0.0	8.000577e-001	-4.353549e-002	0.0	3.485657e-001	7.049218e-002	0.0	8.480331e-001	-3.367181e-002	0.0	2.473345e-001	6.716185e-002	0.0	8.699725e-001	-2.915882e-002	0.0	1.008087e-002	2.038618e-002	0.0	8.904255e-001	-2.497682e-002	0.0	7.688586e-002	-5.345481e-002	0.0	9.093231e-001	-2.112784e-002	0.0	-2.008909e-003	-3.530565e-003	0.0	9.421494e-001	-1.445850e-002	0.0	9.265884e-001	-1.761182e-002	0.0	1.774550e-002	-3.001534e-002	0.0	4.257003e-001	-8.121401e-002	0.0	8.591846e-001	-3.137268e-002	0.0	9.559678e-001	-1.170478e-002	0.0	9.781554e-001	-7.232145e-003	0.0	9.679913e-001	-9.323236e-003	0.0	1.581294e-001	-6.879899e-002	0.0	9.000754e-001	-2.301124e-002	0.0	7.608299e-001	-5.126078e-002	0.0	9.970987e-001	-2.073635e-003	0.0	5.992520e-001	-7.362731e-002	0.0	4.414125e-001	-8.099924e-002	0.0	5.363917e-001	-7.786190e-002	0.0	4.730079e-001	-8.032029e-002	0.0	5.047019e-001	-7.928779e-002	0.0	4.888414e-001	-7.984940e-002	0.0	1.248149e-001	-6.370138e-002	0.0	2.766614e-002	-3.579313e-002	0.0	3.945110e-001	-8.140021e-002	0.0	4.606806e-002	-4.382
[...]
POINT_DATA 5233

SCALARS Density float 1
LOOKUP_TABLE default
1.207355e+000	1.185030e+000	1.170003e+000	1.157186e+000	1.146065e+000	1.136758e+000	1.129310e+000	1.124189e+000	1.121346e+000	1.120290e+000	1.120115e+000	1.119787e+000	1.118472e+000	1.115766e+000	1.111703e+000	1.106645e+000	1.101063e+000	1.095390e+000	1.089892e+000	1.084635e+000	1.079518e+000	1.074352e+000	1.068882e+000	1.062923e+000	1.056256e+000	1.048750e+000	1.040292e+000	1.030816e+000	1.020315e+000	1.008827e+000	9.964455e-001	9.833052e-001	9.695039e-001	9.552696e-001	9.408297e-001	9.264962e-001	9.125922e-001	8.993375e-001	8.869087e-001	8.753179e-001	8.647258e-001	8.555564e-001	8.483952e-001	8.436770e-001	8.413731e-001	8.411222e-001	8.423337e-001	8.444974e-001	8.471118e-001	8.498076e-001	8.522658e-001	8.543766e-001	8.560701e-001	8.573277e-001	8.580656e-001	8.582423e-001	8.578631e-001	8.569957e-001	8.556968e-001	8.540348e-001	8.521266e-001	8.501375e-001	8.483018e-001	8.468538e-001	8.460370e-001	8.460049e-001	8.469035e-001	8.487490e-001	8.515071e-001	8.550368e-001	8.592220e-001	8.639912e-001	8.693941e-001	8.754474e-001	8.821218e-001	8.892632e-001	8.968347e-001	9.048846e-001	9.134264e-001	9.224633e-001	9.320903e-001	9.423658e-001	9.534425e-001	9.654755e-001	9.787024e-001	9.934782e-001	1.010147e+000	1.029215e+000	1.051349e+000	1.077057e+000	1.107009e+000	1.141692e+000	1.180690e+000	1.223021e+000	1.266332e+000	1.306505e+000	1.335436e+000	1.350151e+000	1.340545e+000	1.316058e+000	1.299224e+000	1.254149e+000	1.164567e+000	1.087095e+000	1.017889e+000	9.598764e-001	9.146101e-001	8.808675e-001	8.555091e-001	8.360631e-001	8.208900e-001	8.086937e-001	7.987319e-001	7.901898e-001	7.826531e-001	7.759939e-001	7.699069e-001	7.640250e-001	7.580895e-001	7.519450e-001	7.457294e-001	7.397280e-001	7.340920e-001	7.286336e-001	7.231038e-001	7.174970e-001	7.121333e-001	7.070923e-001	7.022760e-001	6.975698e-001	6.931361e-001	6.891845e-001	6.858705e-001	6.831379e-001	6.808837e-001	6.789499e-001	6.772195e-001	6.756052e-001	6.739928e-001	6.723393e-001	6.706385e-001	6.689269e-001	6.671688e-001	6.652059e-001	6.629041e-001	6.602853e-001	6.574308e-001	6.545038e-001	6.515621e-001	6.487667e-001	6.460773e-001	6.434254e-001	6.408124e-001	6.382278e-001	6.360135e-001	6.344476e-001	6.341318e-001	6.352804e-001	6.370931e-001	6.334369e-001	6.236094e-001	6.585816e-001	8.153680e-001	9.735171e-001	9.913584e-001	9.789450e-001	9.707293e-001	9.670800e-001	9.618297e-001	9.549505e-001	9.478997e-001	9.410335e-001	9.344871e-001	9.288010e-001	9.246548e-001	9.228981e-001	9.242149e-001	9.289053e-001	9.366513e-001	9.465949e-001	9.576402e-001	9.689841e-001	9.805814e-001	9.931968e-001	1.008269e+000	1.027092e+000	1.049831e+000	1.074911e+000	1.099628e+000	1.121643e+000	1.139325e+000	1.152033e+000	1.160039e+000	1.164550e+000	1.166991e+000	1.169648e+000	1.173793e+000	1.181681e+000	1.192897e+000	1.185007e+000	9.992100e-001	9.996762e-001	9.996561e-001	9.994954e-001	9.993563e-001	9.991885e-001	9.989908e-001	9.987471e-001	9.984855e-001	9.983016e-001	9.981998e-001	9.982881e-001	9.985208e-001	9.989721e-001	9.993539e-001	9.996723e-001	9.998591e-001	9.999828e-001	1.000069e+000	1.000113e+000	1.000143e+000	1.000159e+000	1.000173e+000	1.000187e+000	1.000198e+000	1.000212e+000	1.000235e+000	1.000263e+000	1.000301e+000	1.000360e+000	1.000427e+000	1.000540e+000	1.000652e+000	1.000848e+000	1.001038e+000	1.001283e+000	1.001553e+000	1.001683e+000	1.001740e+000	1.001628e+000	1.001491e+000	1.001278e+000	1.001078e+000	1.000880e+000	1.000697e+000	1.000492e+000	1.000337e+000	1.000290e+000	9.996737e-001	9.988854e-001	9.733801e-001	8.876138e-001	6.655151e-001	6.944665e-001	8.607209e-001	1.188473e+000	1.176317e+000	9.915704e-001	9.118841e-001	1.243478e+000	9.657101e-001	6.383037e-001	1.142349e+000	1.134435e+000	6.366463e-001	9.384738e-001	1.315542e+000	1.128201e+000	1.123814e+000	1.339730e+000	8.765219e-001	1.034729e+000	1.014823e+000	6.752902e-001	1.051055e+000	6.900255e-001	1.064299e+000	9.513747e-001	1.075448e+000	9.491242e-001	1.085859e+000	1.345214e+000	1.106592e+000	1.096449e+000	1.116554e+000	8.609385e-001	1.058013e+000	1.114156e+000	1.121012e+000	1.118052e+000	8.801026e-001	1.080669e+000	9.789205e-001	1.162960e+000	8.517606e-001	8.600039e-001	8.480634e-001	8.569256e-001	8.525530e-001	8.548839e-001	9.019219e-001	1.062042e+000	8.612902e-001	1.002694e+000	8.613743e-001	8.549907e-001	8.583837e-001	1.039667e+000	8.518839e-001	1.101693e+000	8.868292e-001	8.638160e-001	9.383835e-001	9.189547e-001	8.464566e-001	8.740312e-001	8.579956e-001	1.070060e+000	1.087558e+000	1.151919e+000	1.222453e+000	8.855115e-001	1.091120e+000	1.110831e+000	1.119326e+000	1.179325e+000	1.043322e+000	8.516758e-001	8.466710e-001	9.521371e-001	1.003576e+000	9.101700e-001	8.560775e-001	8.479899e-001	8.994174e-001	9.872758e-001	1.260251e+000	1.149060e+000	8.597335e-001	8.686349e-001	1.219590e+000	8.534125e-001	9.283571e-001	8.532809e-001	8.509104e-001	8.586467e-001	9.249489e-001	1.293818e+000	1.323695e+000	6.460906e-001	1.328591e+000	8.438791e-001	7.968066e-001	8.164834e-001	7.473397e-001	6.678612e-001	1.168272e+000	6.488310e-001	6.571781e-001	1.107781e+000	1.066129e+000	9.414168e-001	6.543579e-001	6.628912e-001	6.717516e-001	9.825631e-001	9.601955e-001	7.745337e-001	1.124860e+000	1.044760e+000	1.008823e+000	7.606225e-001	7.887888e-001	6.825948e-001	6.871488e-001	7.176744e-001	6.788624e-001	6.600880e-001	6.699198e-001	7.292678e-001	7.412609e-001	6.377010e-001	7.071243e-001	6.975301e-001	6.286467e-001	6.405648e-001	9.738477e-001	1.003264e+000	9.546272e-001	9.669090e-001	9.335108e-001	9.426889e-001	9.500440e-001	9.317913e-001	1.025377e+000	9.711240e-001	1.087781e+000	9.313996e-001	9.351545e-001	9.484961e-001	9.375211e-001	9.706384e-001	9.609965e-001	9.398688e-001	9.863118e-001	6.366270e-001	6.293588e-001	6.432354e-001	6.361065e-001	7.021539e-001	6.934867e-001	7.233448e-001	7.123251e-001	8.059162e-001	7.353185e-001	9.145745e-001	8.289216e-001	8.596026e-001	1.052396e+000	1.116492e+000	1.025222e+000	8.567553e-001	8.501693e-001	1.114691e+000	8.623454e-001	9.972472e-001	7.676072e-001	7.814888e-001	6.847082e-001	7.537911e-001	1.138300e+000	1.148108e+000	6.806766e-001	1.154867e+000	1.159665e+000	6.770952e-001	6.735091e-001	9.948488e-001	1.202083e+000	1.175211e+000	1.182545e+000	8.664473e-001	1.020030e+000	1.163741e+000	6.515640e-001	1.295348e+000	1.184766e+000	9.607289e-001	8.941499e-001	8.510198e-001	7.940575e-001	1.226571e+000	1.275833e+000	8.568010e-001	9.244447e-001	1.086820e+000	1.213411e+000	6.436743e-001	9.122175e-001	9.988568e-001	1.131754e+000	8.602409e-001	1.053049e+000	1.038020e+000	9.448740e-001	1.322271e+000	8.649930e-001	1.148836e+000	1.112632e+000	8.922818e-001	9.370966e-001	8.893207e-001	8.630087e-001	9.559297e-001	8.646372e-001	1.076530e+000	1.009693e+000	1.017917e+000	9.108295e-001	6.198808e-001	9.422682e-001	7.630193e-001	6.475859e-001	7.302735e-001	9.427985e-001	1.144038e+000	6.807066e-001	6.549732e-001	1.041057e+000	9.477900e-001	1.150531e+000	1.059018e+000	1.124639e+000	6.990816e-001	6.827429e-001	7.032511e-001	7.702625e-001	9.004874e-001	8.692377e-001	9.758782e-001	7.428242e-001	8.225820e-001	1.095120e+000	1.155735e+000	9.550580e-001	8.855530e-001	1.213609e+000	1.166368e+000	1.160737e+000	1.066082e+000	1.172932e+000	1.246353e+000	1.333723e+000	1.320646e+000	1.119393e+000	1.220305e+000	9.807380e-001	1.165631e+000	1.146067e+000	6.708636e-001	8.528351e-001	1.126517e+000	1.065584e+000	6.416464e-001	1.138210e+000	1.335234e+000	8.640534e-001	6.730595e-001	1.045898e+000	6.895001e-001	1.059579e+000	1.071175e+000	9.678233e-001	1.081697e+000	1.091902e+000	1.105873e+000	1.068604e+000	1.109582e+000	1.115129e+000	1.122582e+000	9.076024e-001	9.752808e-001	9.873374e-001	1.155229e+000	8.616433e-001	8.600032e-001	8.580367e-001	1.092774e+000	8.649025e-001	8.647133e-001	8.616897e-001	1.027772e+000	1.096869e+000	1.101587e+000	8.996496e-001	9.345777e-001	8.524852e-001	8.620082e-001	1.117325e+000	1.119652e+000	9.498755e-001	9.627331e-001	9.250141e-001	9.160313e-001	8.536069e-001	8.566621e-001	1.010536e+000	9.949434e-001	1.180293e+000	8.629658e-001	8.639676e-001	8.795556e-001	8.741048e-001	8.615654e-001	8.589968e-001	8.575665e-001	8.588083e-001	8.573931e-001	1.307708e+000	1.277708e+000	8.347768e-001	1.135656e+000	6.520323e-001	6.577777e-001	6.606158e-001	6.632917e-001	1.111098e+000	1.077449e+000	9.850387e-001	6.659694e-001	6.684883e-001	6.751063e-001	9.741199e-001	1.024498e+000	8.026027e-001	8.119788e-001	6.954548e-001	6.922531e-001	7.364021e-001	7.495811e-001	7.562378e-001	9.605279e-001	9.769536e-001	9.919211e-001	9.662158e-001	9.457978e-001	9.640180e-001	9.403108e-001	9.403129e-001	9.502180e-001	9.552048e-001	9.716794e-001	9.744065e-001	9.930812e-001	8.389834e-001	6.325275e-001	6.381349e-001	6.462188e-001	6.490133e-001	6.394672e-001	6.400968e-001	7.078615e-001	7.130471e-001	7.185808e-001	7.244118e-001	9.404818e-001	8.491402e-001	8.662111e-001	1.019896e+000	1.029366e+000	8.559906e-001	8.541157e-001	1.119204e+000	8.864652e-001	7.779561e-001	7.859034e-001	6.848132e-001	6.870366e-001	6.769835e-001	6.788056e-001	1.009806e+000	9.967933e-001	8.695568e-001	8.788695e-001	1.046988e+000	1.305023e+000	8.566693e-001	1.317469e+000	8.688485e-001	8.627252e-001	1.005856e+000	8.595894e-001	1.087488e+000	1.140778e+000	1.133465e+000	1.070349e+000	1.122673e+000	1.147236e+000	1.173597e+000	1.182993e+000	1.157030e+000	1.203263e+000	1.121622e+000	1.293340e+000	9.516945e-001	1.092257e+000	1.134512e+000	6.502256e-001	1.177484e+000	1.233752e+000	9.372533e-001	1.285313e+000	9.491427e-001	1.147907e+000	1.061128e+000	1.204967e+000	8.656326e-001	1.054997e+000	9.254569e-001	1.141519e+000	1.176172e+000	1.113391e+000	6.588159e-001	1.038955e+000	6.237110e-001	1.152012e+000	6.619507e-001	6.976819e-001	6.868645e-001	7.444668e-001	8.164716e-001	1.178470e+000	1.300803e+000	1.210324e+000	9.619446e-001	1.257670e+000	1.111529e+000	9.628898e-001	1.318370e+000	8.980765e-001	8.665669e-001	1.097001e+000	1.033998e+000	9.503294e-001	9.658759e-001	6.321382e-001	1.124515e+000	1.054426e+000	9.606682e-001	9.544528e-001	6.892111e-001	6.945099e-001	7.095373e-001	7.807135e-001	9.029594e-001	9.140331e-001	8.749299e-001	9.958119e-001	7.509368e-001	1.100521e+000	1.157781e+000	1.076776e+000	1.168312e+000	1.260747e+000	1.320039e+000	1.074107e+000	1.193726e+000	1.184766e+000	1.114326e+000	1.128872e+000	6.481804e-001	8.676266e-001	6.765861e-001	1.041114e+000	1.048348e+000	1.066841e+000	1.072301e+000	9.880199e-001	9.749906e-001	1.077454e+000	1.082564e+000	1.105031e+000	1.108487e+000	1.124175e+000	9.844569e-001	9.954628e-001	1.148949e+000	8.652849e-001	8.638034e-001	8.688787e-001	8.684239e-001	1.053579e+000	1.096871e+000	1.101123e+000	9.136344e-001	9.055307e-001	8.592923e-001	8.602154e-001	1.117158e+000	1.120315e+000	9.611451e-001	9.730294e-001	9.412357e-001	9.313458e-001	9.222012e-001	8.627785e-001	8.673893e-001	1.035093e+000	1.017979e+000	1.002257e+000	8.667592e-001	8.677209e-001	8.684290e-001	8.915045e-001	8.854255e-001	8.798961e-001	8.707648e-001	8.673781e-001	8.634162e-001	8.644288e-001	8.649330e-001	8.524978e-001	6.645857e-001	6.672311e-001	1.085944e+000	6.697152e-001	6.721010e-001	6.743535e-001	6.787529e-001	9.879682e-001	8.271467e-001	8.390653e-001	7.011676e-001	7.052044e-001	7.579335e-001	7.656839e-001	7.732820e-001	9.812832e-001	9.777769e-001	9.685686e-001	9.503416e-001	9.483781e-001	9.486180e-001	9.531946e-001	9.569071e-001	9.610388e-001	9.712861e-001	9.758044e-001	9.768807e-001	9.975268e-001	9.583149e-001	7.357097e-001	6.359439e-001	6.528635e-001	6.558991e-001	6.408407e-001	6.431690e-001	6.457272e-001	7.143674e-001	7.195034e-001	7.253297e-001	7.315323e-001	7.380825e-001	8.680794e-001	8.865316e-001	1.015634e+000	1.024832e+000	1.033249e+000	8.621396e-001	8.606333e-001	9.080785e-001	9.328205e-001	7.887628e-001	7.975591e-001	8.067463e-001	6.917539e-001	6.809024e-001	6.828825e-001	6.847887e-001	1.024481e+000	1.011201e+000	9.990504e-001	8.741054e-001	8.826281e-001	8.924335e-001	8.633393e-001	8.626752e-001	1.298141e+000	9.585101e-001	1.149646e+000	1.114330e+000	8.657289e-001	1.274608e+000	1.165127e+000	1.087950e+000	1.092473e+000	1.077927e+000	1.138000e+000	6.695296e-001	1.280819e+000	1.011840e+000	1.219851e+000	1.065058e+000	1.144105e+000	1.196456e+000	6.251485e-001	1.160849e+000	1.184634e+000	1.197706e+000	1.012260e+000	9.050002e-001	1.122062e+000	8.736244e-001	9.698887e-001	8.718931e-001	8.694801e-001	1.123585e+000	6.579144e-001	1.051201e+000	1.037658e+000	9.691897e-001	7.607592e-001	7.084252e-001	1.130724e+000	8.420368e-001	1.057125e+000	1.162661e+000	1.131471e+000	1.150188e+000	1.114032e+000	1.145217e+000	9.378367e-001	1.243769e+000	9.498222e-001	9.602457e-001	1.170142e+000	1.136560e+000	1.195341e+000	9.565446e-001	6.658190e-001	6.975852e-001	1.237646e+000	1.046176e+000	6.367983e-001	9.671508e-001	6.948544e-001	7.009190e-001	7.043056e-001	9.159578e-001	9.278324e-001	1.103577e+000	1.082785e+000	1.122070e+000	1.265585e+000	1.304201e+000	1.099217e+000	1.110834e+000	1.125644e+000	6.555824e-001	1.044208e+000	1.050890e+000	1.062983e+000	1.068321e+000	9.948631e-001	9.819144e-001	1.073489e+000	1.078483e+000	1.083288e+000	1.104226e+000	1.107640e+000	9.925015e-001	1.002670e+000	1.143105e+000	8.709120e-001	8.698128e-001	8.732403e-001	8.726894e-001	1.096749e+000	1.100561e+000	9.203451e-001	9.118519e-001	8.678267e-001	1.117400e+000	1.121232e+000	9.716699e-001	9.835078e-001	9.479477e-001	9.381281e-001	9.291219e-001	8.686230e-001	8.740061e-001	1.059235e+000	1.041187e+000	1.024162e+000	1.008764e+000	8.715010e-001	8.723286e-001	8.729610e-001	8.733829e-001	8.983969e-001	8.922886e-001	8.865726e-001	8.817154e-001	8.775372e-001	8.706887e-001	8.698916e-001	8.743051e-001	6.721043e-001	1.091671e+000	1.078663e+000	6.745397e-001	6.767041e-001	6.789401e-001	6.809716e-001	6.832575e-001	8.554438e-001	8.704734e-001	7.125890e-001	7.175476e-001	7.678109e-001	7.755542e-001	7.840922e-001	7.924636e-001	9.917085e-001	9.824890e-001	9.739895e-001	9.615185e-001	9.580678e-001	9.561401e-001	9.566629e-001	9.592458e-001	9.625179e-001	9.651383e-001	9.733819e-001	9.782622e-001	9.830597e-001	9.957647e-001	9.935725e-001	8.624103e-001	6.808312e-001	6.638073e-001	6.598972e-001	6.374004e-001	6.456820e-001	6.499839e-001	6.521872e-001	7.223627e-001	7.278595e-001	7.332415e-001	7.395978e-001	7.461839e-001	7.533760e-001	8.867321e-001	9.055412e-001	1.020829e+000	1.029793e+000	1.037147e+000	8.685040e-001	8.665885e-001	8.670001e-001	9.278260e-001	9.527183e-001	9.802641e-001	8.006640e-001	8.096443e-001	8.198913e-001	8.305774e-001	6.854349e-001	6.878460e-001	6.900577e-001	6.922110e-001	1.001993e+000	1.024802e+000	1.013007e+000	8.784517e-001	8.875834e-001	8.953808e-001	9.066382e-001	8.718102e-001	8.702801e-001	8.694854e-001	1.163992e+000	1.144885e+000	1.110463e+000	1.180929e+000	1.186223e+000	9.650863e-001	9.656348e-001	1.207486e+000	1.105646e+000	1.247362e+000	1.100160e+000	9.131155e-001	7.794691e-001	1.055871e+000	1.154270e+000	1.249620e+000	1.300451e+000	1.302183e+000	1.291424e+000	1.261905e+000	1.146155e+000	7.044116e-001	1.113999e+000	1.132029e+000	1.091961e+000	1.012616e+000	8.784414e-001	1.135955e+000	1.004480e+000	1.037560e+000	6.666768e-001	6.725937e-001	6.405302e-001	9.728823e-001	6.773559e-001	8.737703e-001	7.000445e-001	1.129773e+000	9.769280e-001	1.173544e+000	1.114676e+000	1.300763e+000	1.191153e+000	1.180595e+000	1.088354e+000	1.081529e+000	1.276917e+000	1.024938e+000	1.228131e+000	1.061153e+000	1.184944e+000	1.180991e+000	1.186689e+000	1.142394e+000	8.757256e-001	8.763935e-001	1.122623e+000	6.636483e-001	1.049176e+000	1.126720e+000	9.448487e-001	1.218770e+000	7.068221e-001	7.121342e-001	7.151194e-001	9.241861e-001	1.087684e+000	1.120951e+000	1.284884e+000	1.121648e+000	1.047549e+000	1.053229e+000	1.058769e+000	1.064686e+000	9.888290e-001	1.001894e+000	1.069621e+000	1.074892e+000	1.078997e+000	1.084273e+000	1.103591e+000	1.107041e+000	9.958657e-001	1.137572e+000	8.761145e-001	8.761248e-001	8.773183e-001	8.775631e-001	1.096562e+000	1.099995e+000	9.268174e-001	9.180864e-001	1.117838e+000	1.122053e+000	9.822521e-001	9.547097e-001	9.443039e-001	9.375250e-001	8.778382e-001	1.063790e+000	1.046520e+000	1.030035e+000	1.015696e+000	8.770451e-001	8.768629e-001	8.780950e-001	8.777292e-001	8.787361e-001	9.049541e-001	9.001211e-001	8.928164e-001	8.893157e-001	8.838207e-001	1.095566e+000	1.084741e+000	1.073194e+000	6.791943e-001	6.821184e-001	6.833971e-001	6.862197e-001	6.874899e-001	8.721480e-001	8.882219e-001	7.214461e-001	7.250390e-001	7.847051e-001	7.952110e-001	8.049875e-001	9.963090e-001	9.863857e-001	9.800739e-001	9.722440e-001	9.685563e-001	9.635805e-001	9.628710e-001	9.619906e-001	9.640277e-001	9.660506e-001	9.965095e-001	9.671304e-001	7.115390e-001	6.443240e-001	6.585626e-001	7.321646e-001	7.360045e-001	7.436474e-001	7.477333e-001	7.562472e-001	7.633964e-001	7.712641e-001	9.055939e-001	9.241574e-001	1.026306e+000	1.034010e+000	1.040196e+000	8.748696e-001	8.732044e-001	9.457199e-001	9.706043e-001	9.965398e-001	8.141161e-001	8.234546e-001	8.341164e-001	8.467298e-001	8.590854e-001	6.905296e-001	6.920864e-001	6.955083e-001	6.982877e-001	1.026531e+000	1.015615e+000	8.879633e-001	9.043570e-001	8.817954e-001	8.780642e-001	8.775651e-001	8.756548e-001	1.171390e+000	1.168276e+000	1.195517e+000	1.267114e+000	1.190799e+000	1.113964e+000	1.122037e+000	1.202155e+000	1.068933e+000	1.149311e+000	1.122641e+000	1.266615e+000	1.100638e+000	1.176699e+000	7.083337e-001	1.180061e+000	1.090696e+000	1.174009e+000	1.157419e+000	1.110183e+000	8.805233e-001	1.114822e+000	8.819939e-001	1.091776e+000	1.086088e+000	9.044216e-001	9.723356e-001	9.162275e-001	1.243512e+000	8.823907e-001	9.965122e-001	9.844966e-001	8.016457e-001	1.098102e+000	1.011883e+000	1.228957e+000	1.062789e+000	1.106612e+000	1.176341e+000	1.106677e+000	1.299666e+000	1.256640e+000	1.127529e+000	9.777638e-001	6.817499e-001	6.854377e-001	1.128555e+000	1.181303e+000	1.146683e+000	1.284857e+000	1.184779e+000	1.084114e+000	1.229895e+000	1.213426e+000	6.722442e-001	1.119319e+000	1.058966e+000	1.048126e+000	6.761396e-001	7.163325e-001	7.261305e-001	9.604344e-001	1.119101e+000	1.147312e+000	1.139031e+000	1.052507e+000	1.062811e+000	1.008339e+000	1.072724e+000	1.080085e+000	1.103059e+000	1.132838e+000	8.816181e-001	1.096167e+000	1.099484e+000	9.294534e-001	1.118056e+000	9.921557e-001	1.005985e+000	9.571081e-001	9.438978e-001	8.835021e-001	1.067575e+000	1.050193e+000	1.034651e+000	1.023960e+000	8.824321e-001	8.829979e-001	8.835994e-001	9.034368e-001	8.933397e-001	1.088941e+000	1.079264e+000	6.896375e-001	6.937435e-001	9.053170e-001	7.373400e-001	8.174735e-001	9.667894e-001	9.947482e-001	9.805217e-001	9.709737e-001	9.675731e-001	9.670514e-001	9.669603e-001	9.847330e-001	1.003896e+000	8.736600e-001	6.677797e-001	6.413516e-001	6.578420e-001	6.666707e-001	7.495244e-001	7.621649e-001	7.747404e-001	7.802900e-001	7.908730e-001	9.240331e-001	9.424992e-001	1.020576e+000	1.033282e+000	1.043545e+000	8.812950e-001	8.803535e-001	9.624951e-001	9.858842e-001	1.010648e+000	1.035758e+000	8.287287e-001	8.384583e-001	8.492225e-001	8.624245e-001	8.780574e-001	8.875411e-001	6.983721e-001	7.037722e-001	1.037632e+000	1.027942e+000	8.910712e-001	9.221326e-001	9.414029e-001	8.865178e-001	8.829478e-001	1.133910e+000	1.173283e+000	1.167915e+000	1.152631e+000	1.047388e+000	1.121965e+000	1.176919e+000	1.144978e+000	1.199734e+000	1.151166e+000	1.155355e+000	1.137668e+000	1.116819e+000	1.210267e+000	1.248234e+000	1.083592e+000	9.883301e-001	7.145017e-001	1.141818e+000	1.074595e+000	1.116979e+000	9.135670e-001	1.092655e+000	1.184247e+000	8.884480e-001	1.091858e+000	9.215224e-001	8.895522e-001	1.110037e+000	1.114045e+000	1.100545e+000	1.086197e+000	1.175910e+000	1.107604e+000	1.114688e+000	1.066191e+000	7.323545e-001	6.760654e-001	9.568735e-001	1.014049e+000	1.163905e+000	1.167968e+000	1.282226e+000	1.106212e+000	1.074773e+000	1.186649e+000	1.118342e+000	1.187578e+000	1.167572e+000	8.872913e-001	1.237722e+000	1.004922e+000	9.906436e-001	1.100042e+000	1.247421e+000	1.102628e+000	1.122911e+000	9.736372e-001	1.265736e+000	1.185114e+000	1.028381e+000	1.226320e+000	1.213796e+000	6.