# vtk DataFile Version 3.0
vtk output
ASCII
DATASET UNSTRUCTURED_GRID
POINTS 5233 float
9.997500e-001	-3.633132e-005	0.0	9.990000e-001	-1.454020e-004	0.0	9.977600e-001	-3.267276e-004	0.0	9.960200e-001	-5.856413e-004	0.0	9.937800e-001	-9.311942e-004	0.0	9.910500e-001	-1.376486e-003	0.0	9.878400e-001	-1.936538e-003	0.0	9.841300e-001	-2.625654e-003	0.0	9.799500e-001	-3.431441e-003	0.0	9.752800e-001	-4.323510e-003	0.0	9.701500e-001	-5.233874e-003	0.0	9.645400e-001	-6.087263e-003	0.0	9.584700e-001	-6.807212e-003	0.0	9.519400e-001	-7.350499e-003	0.0	9.449600e-001	-7.718558e-003	0.0	9.375400e-001	-7.959740e-003	0.0	9.296900e-001	-8.155477e-003	0.0	9.214000e-001	-8.399567e-003	0.0	9.127000e-001	-8.776077e-003	0.0	9.035800e-001	-9.347592e-003	0.0	8.940600e-001	-1.014635e-002	0.0	8.841500e-001	-1.117687e-002	0.0	8.738500e-001	-1.242263e-002	0.0	8.631800e-001	-1.384997e-002	0.0	8.521600e-001	-1.541746e-002	0.0	8.407700e-001	-1.708840e-002	0.0	8.290500e-001	-1.882091e-002	0.0	8.170100e-001	-2.058387e-002	0.0	8.046400e-001	-2.235688e-002	0.0	7.919700e-001	-2.412174e-002	0.0	7.790100e-001	-2.587062e-002	0.0	7.657800e-001	-2.760050e-002	0.0	7.522800e-001	-2.931555e-002	0.0	7.385200e-001	-3.102151e-002	0.0	7.245300e-001	-3.272302e-002	0.0	7.103200e-001	-3.442717e-002	0.0	6.958900e-001	-3.614100e-002	0.0	6.812700e-001	-3.786601e-002	0.0	6.664700e-001	-3.960362e-002	0.0	6.515000e-001	-4.135261e-002	0.0	6.363800e-001	-4.310806e-002	0.0	6.211300e-001	-4.486280e-002	0.0	6.057600e-001	-4.660894e-002	0.0	5.902800e-001	-4.833716e-002	0.0	5.747100e-001	-5.003607e-002	0.0	5.590600e-001	-5.169488e-002	0.0	5.433600e-001	-5.330054e-002	0.0	5.276100e-001	-5.484337e-002	0.0	5.118400e-001	-5.631112e-002	0.0	4.960500e-001	-5.769502e-002	0.0	4.802700e-001	-5.898435e-002	0.0	4.645100e-001	-6.017103e-002	0.0	4.487800e-001	-6.124775e-002	0.0	4.331100e-001	-6.220678e-002	0.0	4.175000e-001	-6.304323e-002	0.0	4.019700e-001	-6.375180e-002	0.0	3.865400e-001	-6.432821e-002	0.0	3.712300e-001	-6.476919e-002	0.0	3.560400e-001	-6.507278e-002	0.0	3.409900e-001	-6.523714e-002	0.0	3.261100e-001	-6.526141e-002	0.0	3.114000e-001	-6.514567e-002	0.0	2.968700e-001	-6.489033e-002	0.0	2.825500e-001	-6.449697e-002	0.0	2.684500e-001	-6.396757e-002	0.0	2.545700e-001	-6.330400e-002	0.0	2.409400e-001	-6.251004e-002	0.0	2.275700e-001	-6.158917e-002	0.0	2.144700e-001	-6.054525e-002	0.0	2.016600e-001	-5.938341e-002	0.0	1.891400e-001	-5.810736e-002	0.0	1.769300e-001	-5.672305e-002	0.0	1.650400e-001	-5.523580e-002	0.0	1.534900e-001	-5.365264e-002	0.0	1.422900e-001	-5.197973e-002	0.0	1.314400e-001	-5.022183e-002	0.0	1.209500e-001	-4.838519e-002	0.0	1.108500e-001	-4.648017e-002	0.0	1.011300e-001	-4.451006e-002	0.0	9.181000e-002	-4.248397e-002	0.0	8.290000e-002	-4.040939e-002	0.0	7.440000e-002	-3.829142e-002	0.0	6.633000e-002	-3.614020e-002	0.0	5.869000e-002	-3.396088e-002	0.0	5.149000e-002	-3.176114e-002	0.0	4.474000e-002	-2.954883e-002	0.0	3.844000e-002	-2.732832e-002	0.0	3.260000e-002	-2.510698e-002	0.0	2.723000e-002	-2.289230e-002	0.0	2.232000e-002	-2.068259e-002	0.0	1.790000e-002	-1.849353e-002	0.0	1.395000e-002	-1.631623e-002	0.0	1.049000e-002	-1.416070e-002	0.0	7.520000e-003	-1.202521e-002	0.0	5.040000e-003	-9.904637e-003	0.0	3.050000e-003	-7.788118e-003	0.0	1.560000e-003	-5.670426e-003	0.0	5.600000e-004	-3.502960e-003	0.0	6.000000e-005	-1.219110e-003	0.0	0.000000e+000	0.000000e+000	0.0	6.000000e-005	1.295683e-003	0.0	5.600000e-004	3.768992e-003	0.0	1.560000e-003	6.082814e-003	0.0	3.050000e-003	8.288753e-003	0.0	5.040000e-003	1.043864e-002	0.0	7.520000e-003	1.254507e-002	0.0	1.049000e-002	1.462859e-002	0.0	1.395000e-002	1.670424e-002	0.0	1.790000e-002	1.878326e-002	0.0	2.232000e-002	2.086484e-002	0.0	2.723000e-002	2.296502e-002	0.0	3.260000e-002	2.507515e-002	0.0	3.844000e-002	2.720178e-002	0.0	4.474000e-002	2.934135e-002	0.0	5.149000e-002	3.148903e-002	0.0	5.869000e-002	3.364160e-002	0.0	6.633000e-002	3.579129e-002	0.0	7.440000e-002	3.792930e-002	0.0	8.290000e-002	4.004837e-002	0.0	9.181000e-002	4.213537e-002	0.0	1.011300e-001	4.418146e-002	0.0	1.108500e-001	4.617482e-002	0.0	1.209500e-001	4.810160e-002	0.0	1.314400e-001	4.995354e-002	0.0	1.422900e-001	5.171519e-002	0.0	1.534900e-001	5.337540e-002	0.0	1.650400e-001	5.492476e-002	0.0	1.769300e-001	5.635287e-002	0.0	1.891400e-001	5.764916e-002	0.0	2.016600e-001	5.880546e-002	0.0	2.144700e-001	5.981404e-002	0.0	2.275700e-001	6.067011e-002	0.0	2.409400e-001	6.136880e-002	0.0	2.545700e-001	6.190754e-002	0.0	2.684500e-001	6.228530e-002	0.0	2.825500e-001	6.250241e-002	0.0	2.968700e-001	6.256166e-002	0.0	3.114000e-001	6.246709e-002	0.0	3.261100e-001	6.222472e-002	0.0	3.409900e-001	6.184223e-002	0.0	3.560400e-001	6.132826e-002	0.0	3.712300e-001	6.069380e-002	0.0	3.865400e-001	5.995099e-002	0.0	4.019700e-001	5.911195e-002	0.0	4.175000e-001	5.819050e-002	0.0	4.331100e-001	5.720103e-002	0.0	4.487800e-001	5.615817e-002	0.0	4.645100e-001	5.507498e-002	0.0	4.802700e-001	5.396592e-002	0.0	4.960500e-001	5.284313e-002	0.0	5.118400e-001	5.171731e-002	0.0	5.276100e-001	5.059882e-002	0.0	5.433600e-001	4.949374e-002	0.0	5.590600e-001	4.840784e-002	0.0	5.747100e-001	4.734219e-002	0.0	5.902800e-001	4.629722e-002	0.0	6.057600e-001	4.526929e-002	0.0	6.211300e-001	4.425302e-002	0.0	6.363800e-001	4.324022e-002	0.0	6.515000e-001	4.222108e-002	0.0	6.664700e-001	4.118537e-002	0.0	6.812700e-001	4.012254e-002	0.0	6.958900e-001	3.902164e-002	0.0	7.103200e-001	3.787266e-002	0.0	7.245300e-001	3.666872e-002	0.0	7.385200e-001	3.540252e-002	0.0	7.522800e-001	3.406969e-002	0.0	7.657800e-001	3.267028e-002	0.0	7.790100e-001	3.120499e-002	0.0	7.919700e-001	2.967571e-002	0.0	8.046400e-001	2.808899e-002	0.0	8.170100e-001	2.645280e-002	0.0	8.290500e-001	2.478059e-002	0.0	8.407700e-001	2.308319e-002	0.0	8.521600e-001	2.137693e-002	0.0	8.631800e-001	1.968544e-002	0.0	8.738500e-001	1.802524e-002	0.0	8.841500e-001	1.641960e-002	0.0	8.940600e-001	1.489067e-002	0.0	9.035800e-001	1.345397e-002	0.0	9.127000e-001	1.212076e-002	0.0	9.214000e-001	1.089594e-002	0.0	9.296900e-001	9.771838e-003	0.0	9.375400e-001	8.738858e-003	0.0	9.449600e-001	7.777504e-003	0.0	9.519400e-001	6.870663e-003	0.0	9.584700e-001	6.005372e-003	0.0	9.645400e-001	5.176105e-003	0.0	9.701500e-001	4.384157e-003	0.0	9.752800e-001	3.639869e-003	0.0	9.799500e-001	2.950343e-003	0.0	9.841300e-001	2.328904e-003	0.0	9.878400e-001	1.778181e-003	0.0	9.910500e-001	1.304580e-003	0.0	9.937800e-001	9.046006e-004	0.0	9.960200e-001	5.781711e-004	0.0	9.977600e-001	3.253308e-004	0.0	9.990000e-001	1.452739e-004	0.0	9.997500e-001	3.632929e-005	0.0	1.000000e+000	0.000000e+000	0.0	1.984229e+001	2.506660e+000	0.0	1.937166e+001	4.973800e+000	0.0	1.859553e+001	7.362490e+000	0.0	1.752613e+001	9.635070e+000	0.0	1.618034e+001	1.175571e+001	0.0	1.457937e+001	1.369094e+001	0.0	1.274848e+001	1.541027e+001	0.0	1.071654e+001	1.688656e+001	0.0	8.515590e+000	1.809654e+001	0.0	6.180340e+000	1.902113e+001	0.0	3.747630e+000	1.964575e+001	0.0	1.255810e+000	1.996053e+001	0.0	-1.255810e+000	1.996053e+001	0.0	-3.747630e+000	1.964574e+001	0.0	-6.180340e+000	1.902113e+001	0.0	-8.515590e+000	1.809654e+001	0.0	-1.071654e+001	1.688656e+001	0.0	-1.274848e+001	1.541026e+001	0.0	-1.457937e+001	1.369094e+001	0.0	-1.618034e+001	1.175570e+001	0.0	-1.752613e+001	9.635070e+000	0.0	-1.859553e+001	7.362490e+000	0.0	-1.937166e+001	4.973800e+000	0.0	-1.984229e+001	2.506660e+000	0.0	-2.000000e+001	0.000000e+000	0.0	-1.984229e+001	-2.506670e+000	0.0	-1.937166e+001	-4.973800e+000	0.0	-1.859553e+001	-7.362490e+000	0.0	-1.752613e+001	-9.635080e+000	0.0	-1.618034e+001	-1.175571e+001	0.0	-1.457937e+001	-1.369094e+001	0.0	-1.274848e+001	-1.541027e+001	0.0	-1.071653e+001	-1.688656e+001	0.0	-8.515580e+000	-1.809654e+001	0.0	-6.180340e+000	-1.902113e+001	0.0	-3.747620e+000	-1.964575e+001	0.0	-1.255810e+000	-1.996053e+001	0.0	1.255810e+000	-1.996053e+001	0.0	3.747630e+000	-1.964574e+001	0.0	6.180340e+000	-1.902113e+001	0.0	8.515590e+000	-1.809654e+001	0.0	1.071654e+001	-1.688656e+001	0.0	1.274848e+001	-1.541026e+001	0.0	1.457937e+001	-1.369094e+001	0.0	1.618034e+001	-1.175570e+001	0.0	1.752614e+001	-9.635070e+000	0.0	1.859553e+001	-7.362490e+000	0.0	1.937166e+001	-4.973790e+000	0.0	1.984229e+001	-2.506660e+000	0.0	2.000000e+001	0.000000e+000	0.0	6.071400e-002	-4.207490e-002	0.0	6.604672e-001	-5.421893e-002	0.0	4.259874e-001	7.201904e-002	0.0	6.898044e-001	5.290682e-002	0.0	3.792493e-001	-7.836621e-002	0.0	9.994587e-001	-7.230689e-004	0.0	9.985412e-001	-1.317929e-003	0.0	7.738284e-001	-3.882382e-002	0.0	6.900766e-001	-5.041895e-002	0.0	-1.142892e-003	5.795900e-003	0.0	7.468633e-001	-4.274467e-002	0.0	5.835614e-001	6.123239e-002	0.0	9.927774e-001	-3.646474e-003	0.0	9.898812e-001	-4.586003e-003	0.0	5.991011e-001	6.009209e-002	0.0	7.189144e-001	-4.659549e-002	0.0	-1.403999e-003	7.337272e-004	0.0	9.864946e-001	-5.634494e-003	0.0	9.826249e-001	-6.776624e-003	0.0	-1.123693e-003	-5.487050e-003	0.0	6.454117e-001	-5.610650e-002	0.0	8.243355e-001	-3.082189e-002	0.0	7.996812e-001	-3.484357e-002	0.0	3.487824e-001	7.523645e-002	0.0	8.476612e-001	-2.690516e-002	0.0	2.472544e-001	7.388769e-002	0.0	8.696002e-001	-2.328606e-002	0.0	1.023112e-002	1.892110e-002	0.0	8.900617e-001	-2.021209e-002	0.0	7.692397e-002	-4.712940e-002	0.0	9.089982e-001	-1.783619e-002	0.0	-1.674697e-003	-2.728003e-003	0.0	9.420388e-001	-1.453750e-002	0.0	9.263502e-001	-1.606961e-002	0.0	1.814807e-002	-2.375776e-002	0.0	4.259660e-001	-7.672482e-002	0.0	8.588125e-001	-2.504005e-002	0.0	9.559858e-001	-1.276394e-002	0.0	9.782622e-001	-8.011612e-003	0.0	9.680882e-001	-1.051471e-002	0.0	1.579897e-001	-6.490104e-002	0.0	8.997259e-001	-1.893566e-002	0.0	7.604794e-001	-4.079338e-002	0.0	9.971165e-001	-2.059493e-003	0.0	5.994180e-001	-6.164913e-002	0.0	4.416972e-001	-7.589774e-002	0.0	5.366963e-001	-6.841460e-002	0.0	4.733204e-001	-7.385594e-002	0.0	5.050242e-001	-7.134162e-002	0.0	4.891615e-001	-7.265405e-002	0.0	1.247156e-001	-5.881554e-002	0.0	2.799092e-002	-2.903672e-002	0.0	3.947297e-001	-7.796403e-002	0.0	4.626352e-002	-3.690
[...]
POINT_DATA 5233

SCALARS Density float 1
LOOKUP_TABLE default
1.184083e+000	1.163166e+000	1.150389e+000	1.140562e+000	1.131928e+000	1.122885e+000	1.111166e+000	1.095471e+000	1.075146e+000	1.050842e+000	1.025409e+000	1.005505e+000	9.977546e-001	1.003600e+000	1.019334e+000	1.039339e+000	1.058657e+000	1.073839e+000	1.083625e+000	1.088100e+000	1.087855e+000	1.083764e+000	1.076735e+000	1.067711e+000	1.057521e+000	1.046927e+000	1.036587e+000	1.027006e+000	1.018540e+000	1.011333e+000	1.005382e+000	1.000528e+000	9.965083e-001	9.930334e-001	9.898391e-001	9.866361e-001	9.832382e-001	9.794653e-001	9.752220e-001	9.704587e-001	9.651391e-001	9.594497e-001	9.537712e-001	9.481998e-001	9.416755e-001	9.347968e-001	9.338315e-001	9.447635e-001	9.475478e-001	8.889810e-001	7.625774e-001	6.966463e-001	6.982545e-001	7.101600e-001	7.182407e-001	7.230686e-001	7.282460e-001	7.346603e-001	7.417899e-001	7.493166e-001	7.572128e-001	7.654896e-001	7.740998e-001	7.830176e-001	7.921834e-001	8.016022e-001	8.113065e-001	8.212932e-001	8.314941e-001	8.418408e-001	8.522768e-001	8.628300e-001	8.735849e-001	8.846322e-001	8.959844e-001	9.075560e-001	9.193249e-001	9.313444e-001	9.436434e-001	9.562074e-001	9.691038e-001	9.823356e-001	9.959521e-001	1.009990e+000	1.024516e+000	1.039634e+000	1.055428e+000	1.072058e+000	1.089769e+000	1.108735e+000	1.129342e+000	1.152128e+000	1.177516e+000	1.206360e+000	1.239127e+000	1.275425e+000	1.311363e+000	1.345455e+000	1.350073e+000	1.335931e+000	1.324318e+000	1.280638e+000	1.195534e+000	1.127393e+000	1.072425e+000	1.031743e+000	1.003452e+000	9.837081e-001	9.688231e-001	9.567618e-001	9.462959e-001	9.365348e-001	9.270568e-001	9.174772e-001	9.075960e-001	8.973383e-001	8.865932e-001	8.753080e-001	8.635578e-001	8.513612e-001	8.387803e-001	8.257958e-001	8.123705e-001	7.986295e-001	7.848174e-001	7.711677e-001	7.577453e-001	7.442966e-001	7.306942e-001	7.170413e-001	7.037264e-001	6.909991e-001	6.790005e-001	6.676742e-001	6.570319e-001	6.470273e-001	6.376626e-001	6.290158e-001	6.210286e-001	6.138104e-001	6.074626e-001	6.022474e-001	5.983050e-001	5.954436e-001	5.933488e-001	5.919215e-001	5.911921e-001	5.913379e-001	5.923697e-001	5.944030e-001	5.972473e-001	6.007693e-001	6.046441e-001	6.085044e-001	6.125439e-001	6.170625e-001	6.227243e-001	6.229084e-001	6.168885e-001	6.408199e-001	7.787874e-001	9.586895e-001	9.920715e-001	9.787772e-001	9.705715e-001	9.705600e-001	9.707242e-001	9.708362e-001	9.724250e-001	9.756044e-001	9.800315e-001	9.855532e-001	9.921009e-001	9.995250e-001	1.007558e+000	1.015964e+000	1.024355e+000	1.032423e+000	1.039768e+000	1.046098e+000	1.051154e+000	1.054869e+000	1.057347e+000	1.058947e+000	1.060230e+000	1.061892e+000	1.064574e+000	1.068666e+000	1.074209e+000	1.080886e+000	1.088239e+000	1.095861e+000	1.103553e+000	1.111457e+000	1.119684e+000	1.129086e+000	1.139959e+000	1.153691e+000	1.170804e+000	1.161928e+000	9.986144e-001	9.996095e-001	9.997124e-001	9.995584e-001	9.994560e-001	9.993261e-001	9.991729e-001	9.989835e-001	9.987787e-001	9.986440e-001	9.985813e-001	9.986800e-001	9.988974e-001	9.992897e-001	9.996139e-001	9.998756e-001	1.000024e+000	1.000117e+000	1.000177e+000	1.000206e+000	1.000223e+000	1.000231e+000	1.000238e+000	1.000247e+000	1.000254e+000	1.000267e+000	1.000288e+000	1.000315e+000	1.000352e+000	1.000409e+000	1.000473e+000	1.000577e+000	1.000679e+000	1.000853e+000	1.001015e+000	1.001216e+000	1.001428e+000	1.001515e+000	1.001541e+000	1.001425e+000	1.001293e+000	1.001099e+000	1.000919e+000	1.000742e+000	1.000585e+000	1.000394e+000	1.000238e+000	1.000263e+000	9.992806e-001	9.979516e-001	1.012747e+000	9.740247e-001	5.955238e-001	1.003044e+000	7.388054e-001	1.165617e+000	1.154592e+000	1.005286e+000	9.825198e-001	1.264177e+000	9.967321e-001	6.129118e-001	1.123833e+000	1.113542e+000	6.188379e-001	9.897145e-001	1.331345e+000	1.100984e+000	1.085501e+000	1.328592e+000	9.691106e-001	1.032926e+000	1.017128e+000	6.181669e-001	1.051239e+000	6.846687e-001	1.068477e+000	1.029864e+000	1.079520e+000	9.849440e-001	1.078840e+000	1.344654e+000	1.033985e+000	1.062559e+000	1.133828e+000	7.223465e-001	1.060285e+000	1.013525e+000	1.067049e+000	1.027875e+000	8.875301e-001	1.080974e+000	1.000695e+000	1.142762e+000	9.530408e-001	7.107031e-001	9.415785e-001	7.107608e-001	9.458691e-001	8.297071e-001	9.220375e-001	1.093585e+000	7.325888e-001	1.042655e+000	7.276434e-001	7.693343e-001	7.533248e-001	1.075598e+000	7.867107e-001	1.049027e+000	8.987627e-001	8.554671e-001	9.716952e-001	9.462271e-001	9.404478e-001	8.766143e-001	9.582932e-001	1.075128e+000	1.112902e+000	1.133193e+000	1.209910e+000	9.877779e-001	1.072718e+000	1.020776e+000	1.046706e+000	1.206402e+000	1.041942e+000	8.147415e-001	9.355450e-001	9.931318e-001	1.010713e+000	9.340018e-001	8.347453e-001	9.474413e-001	9.784905e-001	1.027397e+000	1.240389e+000	1.156718e+000	7.458470e-001	8.659679e-001	1.196117e+000	8.246191e-001	9.588000e-001	7.778758e-001	8.051399e-001	6.998740e-001	9.862219e-001	1.312205e+000	1.304117e+000	6.008358e-001	1.339095e+000	9.594213e-001	9.142731e-001	9.362379e-001	8.296864e-001	5.981768e-001	1.133430e+000	5.974649e-001	5.922232e-001	1.078975e+000	1.068408e+000	1.036171e+000	5.930220e-001	5.935907e-001	6.060220e-001	1.055311e+000	1.047772e+000	8.799303e-001	1.085495e+000	1.064728e+000	1.059856e+000	8.554597e-001	9.031305e-001	6.525366e-001	6.733899e-001	7.625265e-001	6.340134e-001	5.924757e-001	6.016444e-001	7.891078e-001	8.162549e-001	6.197132e-001	7.355950e-001	7.090563e-001	6.679794e-001	6.086986e-001	9.754694e-001	9.758498e-001	9.823277e-001	9.762312e-001	1.006406e+000	9.927503e-001	1.042453e+000	1.021647e+000	1.062001e+000	1.052044e+000	1.073196e+000	1.013979e+000	1.029156e+000	9.870538e-001	9.992747e-001	9.753890e-001	9.786461e-001	9.892295e-001	9.747887e-001	6.213368e-001	9.111864e-001	6.047486e-001	6.229236e-001	7.221477e-001	6.965852e-001	7.758005e-001	7.491590e-001	9.252415e-001	8.026498e-001	1.006289e+000	9.475117e-001	8.450517e-001	1.100795e+000	1.015697e+000	1.024560e+000	7.611581e-001	9.575312e-001	1.150714e+000	9.725330e-001	1.060614e+000	8.678432e-001	8.916845e-001	6.626677e-001	8.427586e-001	1.092460e+000	1.099666e+000	6.429761e-001	1.107161e+000	1.115017e+000	6.257719e-001	6.115348e-001	1.057788e+000	1.182441e+000	1.145426e+000	1.157177e+000	9.637365e-001	1.058687e+000	1.123670e+000	5.947802e-001	1.272787e+000	1.182021e+000	9.986114e-001	9.102996e-001	7.958102e-001	8.970530e-001	1.243896e+000	1.288826e+000	8.004284e-001	9.857037e-001	1.069963e+000	1.204104e+000	6.092523e-001	9.817268e-001	1.010348e+000	1.104172e+000	7.743180e-001	1.053734e+000	1.037811e+000	9.743672e-001	1.308196e+000	8.490542e-001	1.155397e+000	1.027394e+000	9.021891e-001	9.894474e-001	9.728760e-001	7.096912e-001	9.875216e-001	7.442817e-001	1.073764e+000	1.016100e+000	1.074459e+000	1.001848e+000	8.074075e-001	1.005976e+000	8.474063e-001	9.913744e-001	7.815843e-001	1.026529e+000	1.102635e+000	6.321395e-001	5.964043e-001	1.064456e+000	1.033067e+000	1.109730e+000	1.067947e+000	1.089154e+000	7.038314e-001	6.407809e-001	7.161046e-001	8.601765e-001	9.775176e-001	8.594182e-001	1.045295e+000	8.076851e-001	9.326731e-001	1.077223e+000	1.117436e+000	1.039138e+000	8.911515e-001	1.193447e+000	1.135372e+000	1.125847e+000	1.109857e+000	1.197232e+000	1.230841e+000	1.335603e+000	1.329909e+000	1.133652e+000	1.199282e+000	1.015037e+000	1.143792e+000	1.124587e+000	6.025744e-001	9.393891e-001	1.091640e+000	1.067097e+000	6.144560e-001	1.114936e+000	1.328157e+000	7.254794e-001	6.068172e-001	1.045876e+000	6.699793e-001	1.061002e+000	1.071518e+000	1.001052e+000	1.073323e+000	1.063570e+000	1.034418e+000	1.094777e+000	1.027942e+000	1.033964e+000	1.077261e+000	9.252171e-001	1.000856e+000	1.005308e+000	1.133924e+000	7.107154e-001	7.759600e-001	9.087628e-001	1.113610e+000	7.385227e-001	7.329177e-001	7.662435e-001	1.060522e+000	1.054609e+000	1.044212e+000	9.135529e-001	9.615954e-001	9.412529e-001	9.573993e-001	1.046352e+000	1.061692e+000	9.930842e-001	9.968858e-001	9.492110e-001	9.370752e-001	9.471369e-001	9.523583e-001	1.044716e+000	1.029605e+000	1.178748e+000	7.585398e-001	7.511389e-001	8.804435e-001	8.698854e-001	8.388541e-001	8.288777e-001	7.914411e-001	7.827053e-001	8.191434e-001	1.319152e+000	1.258798e+000	9.446512e-001	1.095750e+000	5.985438e-001	5.950517e-001	5.947211e-001	5.952073e-001	1.082943e+000	1.072204e+000	1.052944e+000	5.967511e-001	5.991700e-001	6.119550e-001	1.049114e+000	1.061529e+000	9.089673e-001	9.208368e-001	6.920764e-001	6.807359e-001	7.946362e-001	8.209995e-001	8.343256e-001	9.851974e-001	9.806938e-001	9.800020e-001	9.821659e-001	9.997477e-001	1.044499e+000	1.019624e+000	1.012734e+000	9.941027e-001	9.892035e-001	9.803037e-001	9.800487e-001	9.807791e-001	9.955660e-001	6.322268e-001	6.098180e-001	6.051079e-001	6.015690e-001	6.206294e-001	6.186663e-001	7.286753e-001	7.417370e-001	7.550190e-001	7.684343e-001	1.021604e+000	9.571348e-001	9.705392e-001	1.022676e+000	1.029999e+000	9.572732e-001	9.484046e-001	1.151898e+000	9.852169e-001	8.726729e-001	8.849379e-001	6.499040e-001	6.596674e-001	6.177768e-001	6.244779e-001	1.058871e+000	1.056113e+000	9.625844e-001	9.679112e-001	1.077145e+000	1.286153e+000	8.096729e-001	1.306604e+000	7.505800e-001	8.057707e-001	1.015452e+000	9.435746e-001	1.062869e+000	1.105050e+000	1.098579e+000	1.071056e+000	1.151617e+000	1.112274e+000	1.145967e+000	1.160713e+000	1.134176e+000	1.181806e+000	1.132940e+000	1.299510e+000	9.777032e-001	1.057187e+000	1.107455e+000	6.063723e-001	1.155160e+000	1.221377e+000	9.892059e-001	1.268945e+000	9.930538e-001	1.153088e+000	1.060414e+000	1.197606e+000	7.800420e-001	1.054831e+000	9.853258e-001	1.117214e+000	1.174856e+000	1.086333e+000	5.985629e-001	1.063579e+000	7.032861e-001	1.119180e+000	5.978671e-001	6.888235e-001	6.480081e-001	8.015112e-001	9.153002e-001	1.153824e+000	1.286559e+000	1.225442e+000	1.033158e+000	1.266993e+000	1.040807e+000	9.906263e-001	1.323145e+000	9.062773e-001	7.157928e-001	1.113795e+000	1.083707e+000	1.006253e+000	9.881664e-001	9.458238e-001	1.092354e+000	1.067062e+000	1.036341e+000	1.030528e+000	6.574659e-001	6.778353e-001	7.240336e-001	8.659666e-001	9.767980e-001	9.811260e-001	8.639791e-001	1.056534e+000	8.141174e-001	1.080759e+000	1.126719e+000	1.115520e+000	1.189631e+000	1.245322e+000	1.316048e+000	1.095593e+000	1.170358e+000	1.161698e+000	1.049098e+000	1.097150e+000	6.102191e-001	7.274326e-001	6.123446e-001	1.041474e+000	1.048363e+000	1.064742e+000	1.067461e+000	1.017751e+000	1.004010e+000	1.068126e+000	1.066666e+000	1.038459e+000	1.037182e+000	1.085683e+000	1.005374e+000	1.010143e+000	1.125636e+000	7.416566e-001	8.534437e-001	7.449717e-001	7.376570e-001	1.078621e+000	1.050279e+000	1.043437e+000	9.290045e-001	9.174638e-001	9.422754e-001	9.471537e-001	1.060523e+000	1.073133e+000	9.969490e-001	1.000969e+000	9.651003e-001	9.527222e-001	9.407629e-001	9.520566e-001	9.569785e-001	1.062563e+000	1.047011e+000	1.032005e+000	7.721445e-001	7.644533e-001	7.572175e-001	8.955464e-001	8.849294e-001	8.744052e-001	8.537373e-001	8.436866e-001	7.968776e-001	7.883143e-001	8.338525e-001	9.527975e-001	5.977004e-001	5.987364e-001	1.075617e+000	6.005555e-001	6.034790e-001	6.073141e-001	6.181753e-001	1.050464e+000	9.276086e-001	9.401120e-001	7.000802e-001	7.119615e-001	8.267441e-001	8.399361e-001	8.531884e-001	9.855632e-001	1.046349e+000	1.041587e+000	1.024478e+000	1.018206e+000	1.012233e+000	1.000684e+000	9.959019e-001	9.916232e-001	9.858753e-001	9.845943e-001	9.851566e-001	9.839410e-001	9.868102e-001	1.001240e+000	6.194099e-001	6.029136e-001	6.004217e-001	6.114836e-001	6.170851e-001	6.151998e-001	7.364898e-001	7.489915e-001	7.619668e-001	7.751605e-001	7.885468e-001	9.659158e-001	9.801910e-001	1.021293e+000	1.027716e+000	1.034437e+000	9.440493e-001	9.531859e-001	9.959045e-001	1.013221e+000	8.784164e-001	8.907930e-001	9.030454e-001	6.674450e-001	6.249046e-001	6.319533e-001	6.395620e-001	1.060414e+000	1.057333e+000	1.054086e+000	9.618798e-001	9.670896e-001	9.720261e-001	8.242577e-001	8.148898e-001	1.286010e+000	9.811733e-001	1.119809e+000	1.089081e+000	9.451509e-001	1.277414e+000	1.141946e+000	1.057761e+000	1.053507e+000	1.095450e+000	1.106772e+000	6.029494e-001	1.267100e+000	1.064618e+000	1.210083e+000	1.069690e+000	1.113201e+000	1.209849e+000	6.592180e-001	1.180002e+000	1.163479e+000	1.173411e+000	1.020101e+000	9.114937e-001	1.131011e+000	7.583981e-001	9.939827e-001	7.339655e-001	8.125153e-001	1.094771e+000	6.047922e-001	1.065795e+000	1.062223e+000	9.909092e-001	8.221552e-001	7.103008e-001	1.101132e+000	9.342907e-001	1.054698e+000	1.134133e+000	1.100684e+000	1.126064e+000	1.061229e+000	1.149384e+000	9.888383e-001	1.231047e+000	9.929994e-001	9.968166e-001	1.169195e+000	1.109945e+000	1.189588e+000	1.006005e+000	6.013194e-001	6.771782e-001	1.245324e+000	1.089658e+000	8.380742e-001	1.033959e+000	6.674284e-001	6.880058e-001	6.986827e-001	9.805593e-001	9.849357e-001	1.083641e+000	1.117262e+000	1.148148e+000	1.251291e+000	1.296452e+000	1.112760e+000	1.052960e+000	1.091599e+000	6.084342e-001	1.043982e+000	1.049748e+000	1.058955e+000	1.061601e+000	1.020384e+000	1.006985e+000	1.063047e+000	1.062801e+000	1.060957e+000	1.045123e+000	1.047374e+000	1.009593e+000	1.014747e+000	1.118278e+000	7.411066e-001	8.106843e-001	7.517163e-001	7.429889e-001	1.049257e+000	1.046068e+000	9.334587e-001	9.218668e-001	9.474736e-001	1.071018e+000	1.081430e+000	1.000844e+000	1.005706e+000	9.688220e-001	9.568053e-001	9.451271e-001	9.510483e-001	9.561948e-001	1.079741e+000	1.063978e+000	1.048608e+000	1.034125e+000	7.874204e-001	7.795349e-001	7.721737e-001	7.649968e-001	9.009255e-001	8.904338e-001	8.799303e-001	8.697058e-001	8.596508e-001	7.954155e-001	8.038840e-001	8.498103e-001	6.042652e-001	1.078613e+000	1.073936e+000	6.069198e-001	6.100296e-001	6.146705e-001	6.197822e-001	6.264971e-001	9.473004e-001	9.607813e-001	7.217145e-001	7.340586e-001	8.343726e-001	8.464922e-001	8.595026e-001	8.725461e-001	1.047959e+000	1.043729e+000	1.038971e+000	1.028404e+000	1.023043e+000	1.017406e+000	1.011736e+000	1.001805e+000	9.975708e-001	9.933165e-001	9.881236e-001	9.872057e-001	9.867725e-001	9.890283e-001	9.916294e-001	1.002615e+000	9.944844e-001	6.019936e-001	6.025232e-001	6.198350e-001	6.052266e-001	6.105123e-001	6.120241e-001	7.460035e-001	7.584471e-001	7.704305e-001	7.830084e-001	7.957979e-001	8.089598e-001	9.744121e-001	9.887326e-001	1.025603e+000	1.032144e+000	1.038061e+000	9.156532e-001	9.528867e-001	9.505351e-001	1.005047e+000	1.022844e+000	1.042196e+000	8.850876e-001	8.972030e-001	9.095368e-001	9.218656e-001	6.334620e-001	6.416471e-001	6.496555e-001	6.579555e-001	1.051859e+000	1.058796e+000	1.055472e+000	9.612434e-001	9.666029e-001	9.714040e-001	9.762747e-001	8.401526e-001	8.306849e-001	8.215221e-001	1.163169e+000	1.115846e+000	1.062896e+000	1.157794e+000	1.181532e+000	9.982633e-001	9.851196e-001	1.199547e+000	1.085986e+000	1.235198e+000	1.111009e+000	9.182888e-001	8.442526e-001	1.093596e+000	1.171374e+000	1.251686e+000	1.302052e+000	1.303127e+000	1.291563e+000	1.249497e+000	1.121541e+000	6.891035e-001	1.070445e+000	1.104041e+000	1.052636e+000	1.020767e+000	7.656661e-001	1.107574e+000	1.049610e+000	1.060478e+000	6.059081e-001	6.068413e-001	6.792057e-001	9.894822e-001	6.108724e-001	9.525619e-001	6.768653e-001	1.102044e+000	9.975477e-001	1.148269e+000	1.091140e+000	1.297947e+000	1.167130e+000	1.157086e+000	1.054983e+000	1.095521e+000	1.264948e+000	1.070543e+000	1.217635e+000	1.067912e+000	1.196819e+000	1.158008e+000	1.162349e+000	1.145502e+000	8.104595e-001	8.206999e-001	1.096451e+000	6.073987e-001	1.064113e+000	1.095870e+000	9.903803e-001	1.225386e+000	6.973663e-001	7.106648e-001	7.196810e-001	9.821419e-001	1.117937e+000	1.144200e+000	1.274989e+000	1.128607e+000	1.045735e+000	1.050144e+000	1.053348e+000	1.057074e+000	1.010200e+000	1.023343e+000	1.058233e+000	1.059603e+000	1.058230e+000	1.057179e+000	1.052621e+000	1.056743e+000	1.011756e+000	1.111503e+000	7.495847e-001	7.863948e-001	7.571034e-001	7.536662e-001	1.050953e+000	1.050766e+000	9.377446e-001	9.264907e-001	1.078847e+000	1.087481e+000	1.005305e+000	9.726456e-001	9.605975e-001	9.513383e-001	9.528905e-001	1.080366e+000	1.065252e+000	1.050363e+000	1.036727e+000	8.040195e-001	7.944210e-001	7.884839e-001	7.792139e-001	7.740702e-001	9.063067e-001	8.974194e-001	8.852479e-001	8.768442e-001	8.653042e-001	1.081031e+000	1.076403e+000	1.072030e+000	6.131119e-001	6.185600e-001	6.218720e-001	6.293695e-001	6.342344e-001	9.548851e-001	9.688241e-001	7.337736e-001	7.434198e-001	8.530847e-001	8.662079e-001	8.797233e-001	1.045328e+000	1.041150e+000	1.036313e+000	1.031515e+000	1.026293e+000	1.021163e+000	1.015623e+000	1.008057e+000	1.002135e+000	9.960409e-001	9.881002e-001	1.007634e+000	9.644004e-001	6.142744e-001	6.063410e-001	7.579627e-001	7.676342e-001	7.818350e-001	7.910787e-001	8.048870e-001	8.177170e-001	8.307438e-001	9.829421e-001	9.972982e-001	1.029589e+000	1.035379e+000	1.039979e+000	8.781958e-001	9.461492e-001	1.013054e+000	1.031157e+000	1.049882e+000	8.926186e-001	9.048695e-001	9.168647e-001	9.297574e-001	9.423917e-001	6.435835e-001	6.498385e-001	6.604522e-001	6.698993e-001	1.057014e+000	1.053064e+000	9.625207e-001	9.731482e-001	8.572817e-001	8.460463e-001	8.384778e-001	8.277768e-001	1.148542e+000	1.140472e+000	1.189042e+000	1.266481e+000	1.166147e+000	1.077126e+000	1.097634e+000	1.208162e+000	1.069725e+000	1.124750e+000	1.091712e+000	1.256266e+000	1.109131e+000	1.172914e+000	6.940556e-001	1.157468e+000	1.117135e+000	1.184599e+000	1.156650e+000	1.070409e+000	9.512778e-001	1.092552e+000	8.229547e-001	1.053815e+000	1.054744e+000	9.689111e-001	9.886048e-001	9.182868e-001	1.232505e+000	7.705649e-001	1.014104e+000	1.001590e+000	8.680927e-001	1.082771e+000	1.048255e+000	1.230738e+000	1.095455e+000	1.064495e+000	1.152319e+000	1.087491e+000	1.299533e+000	1.245517e+000	1.098997e+000	1.003059e+000	6.166507e-001	6.233490e-001	1.102804e+000	1.157049e+000	1.118601e+000	1.278145e+000	1.161016e+000	1.095106e+000	1.219622e+000	1.204748e+000	6.090951e-001	1.124794e+000	1.065978e+000	1.061808e+000	6.115573e-001	7.146493e-001	7.373330e-001	9.954895e-001	1.139688e+000	1.162599e+000	1.141257e+000	1.047797e+000	1.053148e+000	1.026136e+000	1.056035e+000	1.055693e+000	1.059661e+000	1.105997e+000	7.758507e-001	1.054410e+000	1.056292e+000	9.373146e-001	1.084300e+000	1.009873e+000	1.017168e+000	9.717253e-001	9.553305e-001	9.529642e-001	1.080752e+000	1.065421e+000	1.051519e+000	1.041047e+000	8.069837e-001	7.921553e-001	7.811467e-001	8.974611e-001	8.773754e-001	1.078260e+000	1.073958e+000	6.344723e-001	6.482230e-001	9.761169e-001	7.611349e-001	8.866072e-001	1.000622e+000	1.040047e+000	1.030715e+000	1.021041e+000	1.012706e+000	1.006048e+000	9.937598e-001	9.867003e-001	9.986328e-001	1.012303e+000	8.452310e-001	6.316343e-001	6.019775e-001	6.096818e-001	7.850642e-001	8.076510e-001	8.279947e-001	8.381636e-001	8.527875e-001	9.913479e-001	1.005683e+000	1.025888e+000	1.034457e+000	1.041635e+000	8.376435e-001	9.191738e-001	1.020559e+000	1.037835e+000	1.056209e+000	1.074942e+000	9.006663e-001	9.131059e-001	9.249553e-001	9.374766e-001	9.522316e-001	9.619398e-001	6.641772e-001	6.804910e-001	1.058458e+000	1.054392e+000	9.578929e-001	9.789744e-001	9.874293e-001	8.582431e-001	8.400777e-001	1.107469e+000	1.149696e+000	1.144419e+000	1.124551e+000	1.060322e+000	1.098426e+000	1.154050e+000	1.119910e+000	1.192532e+000	1.150307e+000	1.131276e+000	1.111862e+000	1.134937e+000	1.212079e+000	1.238314e+000	1.075337e+000	1.007412e+000	7.040387e-001	1.114357e+000	1.054067e+000	1.121113e+000	9.771851e-001	1.115611e+000	1.178886e+000	7.892357e-001	1.056373e+000	9.750917e-001	9.514837e-001	1.075934e+000	1.081849e+000	1.106984e+000	1.094430e+000	1.152386e+000	1.088624e+000	1.093220e+000	1.067296e+000	7.433869e-001	6.128343e-001	9.923983e-001	1.028769e+000	1.136532e+000	1.141735e+000	1.278828e+000	1.070397e+000	1.071136e+000	1.161451e+000	1.088153e+000	1.193063e+000	1.164409e+000	9.366807e-001	1.227779e+000	1.019148e+000	1.004656e+000	1.084081e+000	1.245909e+000	1.065565e+000	1.094462e+000	1.000249e+000	1.257824e+000	1.160909e+000	1.042344e+000	1.216790e+000	1.205183e+000	6.