# vtk DataFile Version 3.0
vtk output
ASCII
DATASET UNSTRUCTURED_GRID
POINTS 5233 float
9.997500e-001	-3.632897e-005	0.0	9.990000e-001	-1.452538e-004	0.0	9.977600e-001	-3.251112e-004	0.0	9.960200e-001	-5.769984e-004	0.0	9.937800e-001	-9.004365e-004	0.0	9.910500e-001	-1.293364e-003	0.0	9.878400e-001	-1.753610e-003	0.0	9.841300e-001	-2.283177e-003	0.0	9.799500e-001	-2.876826e-003	0.0	9.752800e-001	-3.536324e-003	0.0	9.701500e-001	-4.256269e-003	0.0	9.645400e-001	-5.038225e-003	0.0	9.584700e-001	-5.878077e-003	0.0	9.519400e-001	-6.774429e-003	0.0	9.449600e-001	-7.724467e-003	0.0	9.375400e-001	-8.725349e-003	0.0	9.296900e-001	-9.774221e-003	0.0	9.214000e-001	-1.087086e-002	0.0	9.127000e-001	-1.200973e-002	0.0	9.035800e-001	-1.319056e-002	0.0	8.940600e-001	-1.440916e-002	0.0	8.841500e-001	-1.566269e-002	0.0	8.738500e-001	-1.694956e-002	0.0	8.631800e-001	-1.826569e-002	0.0	8.521600e-001	-1.960709e-002	0.0	8.407700e-001	-2.097463e-002	0.0	8.290500e-001	-2.236196e-002	0.0	8.170100e-001	-2.376642e-002	0.0	8.046400e-001	-2.518764e-002	0.0	7.919700e-001	-2.662063e-002	0.0	7.790100e-001	-2.806277e-002	0.0	7.657800e-001	-2.951034e-002	0.0	7.522800e-001	-3.096181e-002	0.0	7.385200e-001	-3.241453e-002	0.0	7.245300e-001	-3.386377e-002	0.0	7.103200e-001	-3.530689e-002	0.0	6.958900e-001	-3.674225e-002	0.0	6.812700e-001	-3.816515e-002	0.0	6.664700e-001	-3.957289e-002	0.0	6.515000e-001	-4.096270e-002	0.0	6.363800e-001	-4.233084e-002	0.0	6.211300e-001	-4.367359e-002	0.0	6.057600e-001	-4.498807e-002	0.0	5.902800e-001	-4.627133e-002	0.0	5.747100e-001	-4.751951e-002	0.0	5.590600e-001	-4.872956e-002	0.0	5.433600e-001	-4.989684e-002	0.0	5.276100e-001	-5.101898e-002	0.0	5.118400e-001	-5.209138e-002	0.0	4.960500e-001	-5.311154e-002	0.0	4.802700e-001	-5.407492e-002	0.0	4.645100e-001	-5.497836e-002	0.0	4.487800e-001	-5.581860e-002	0.0	4.331100e-001	-5.659142e-002	0.0	4.175000e-001	-5.729417e-002	0.0	4.019700e-001	-5.792324e-002	0.0	3.865400e-001	-5.847521e-002	0.0	3.712300e-001	-5.894684e-002	0.0	3.560400e-001	-5.933562e-002	0.0	3.409900e-001	-5.963848e-002	0.0	3.261100e-001	-5.985254e-002	0.0	3.114000e-001	-5.997565e-002	0.0	2.968700e-001	-6.000550e-002	0.0	2.825500e-001	-5.994005e-002	0.0	2.684500e-001	-5.977766e-002	0.0	2.545700e-001	-5.951658e-002	0.0	2.409400e-001	-5.915586e-002	0.0	2.275700e-001	-5.869457e-002	0.0	2.144700e-001	-5.813197e-002	0.0	2.016600e-001	-5.746811e-002	0.0	1.891400e-001	-5.670228e-002	0.0	1.769300e-001	-5.583514e-002	0.0	1.650400e-001	-5.486709e-002	0.0	1.534900e-001	-5.379978e-002	0.0	1.422900e-001	-5.263443e-002	0.0	1.314400e-001	-5.137134e-002	0.0	1.209500e-001	-5.001187e-002	0.0	1.108500e-001	-4.856067e-002	0.0	1.011300e-001	-4.701715e-002	0.0	9.181000e-002	-4.538527e-002	0.0	8.290000e-002	-4.366791e-002	0.0	7.440000e-002	-4.186608e-002	0.0	6.633000e-002	-3.998514e-002	0.0	5.869000e-002	-3.802636e-002	0.0	5.149000e-002	-3.599338e-002	0.0	4.474000e-002	-3.389028e-002	0.0	3.844000e-002	-3.171811e-002	0.0	3.260000e-002	-2.948109e-002	0.0	2.723000e-002	-2.718420e-002	0.0	2.232000e-002	-2.482329e-002	0.0	1.790000e-002	-2.241365e-002	0.0	1.395000e-002	-1.994492e-002	0.0	1.049000e-002	-1.742916e-002	0.0	7.520000e-003	-1.486756e-002	0.0	5.040000e-003	-1.226032e-002	0.0	3.050000e-003	-9.605565e-003	0.0	1.560000e-003	-6.917518e-003	0.0	5.600000e-004	-4.173160e-003	0.0	6.000000e-005	-1.375330e-003	0.0	0.000000e+000	0.000000e+000	0.0	6.000000e-005	1.375330e-003	0.0	5.600000e-004	4.173160e-003	0.0	1.560000e-003	6.917518e-003	0.0	3.050000e-003	9.605565e-003	0.0	5.040000e-003	1.226032e-002	0.0	7.520000e-003	1.486756e-002	0.0	1.049000e-002	1.742916e-002	0.0	1.395000e-002	1.994492e-002	0.0	1.790000e-002	2.241365e-002	0.0	2.232000e-002	2.482329e-002	0.0	2.723000e-002	2.718420e-002	0.0	3.260000e-002	2.948109e-002	0.0	3.844000e-002	3.171811e-002	0.0	4.474000e-002	3.389028e-002	0.0	5.149000e-002	3.599338e-002	0.0	5.869000e-002	3.802636e-002	0.0	6.633000e-002	3.998514e-002	0.0	7.440000e-002	4.186608e-002	0.0	8.290000e-002	4.366791e-002	0.0	9.181000e-002	4.538527e-002	0.0	1.011300e-001	4.701715e-002	0.0	1.108500e-001	4.856067e-002	0.0	1.209500e-001	5.001187e-002	0.0	1.314400e-001	5.137134e-002	0.0	1.422900e-001	5.263443e-002	0.0	1.534900e-001	5.379978e-002	0.0	1.650400e-001	5.486709e-002	0.0	1.769300e-001	5.583514e-002	0.0	1.891400e-001	5.670228e-002	0.0	2.016600e-001	5.746811e-002	0.0	2.144700e-001	5.813197e-002	0.0	2.275700e-001	5.869457e-002	0.0	2.409400e-001	5.915586e-002	0.0	2.545700e-001	5.951658e-002	0.0	2.684500e-001	5.977766e-002	0.0	2.825500e-001	5.994005e-002	0.0	2.968700e-001	6.000550e-002	0.0	3.114000e-001	5.997565e-002	0.0	3.261100e-001	5.985254e-002	0.0	3.409900e-001	5.963848e-002	0.0	3.560400e-001	5.933562e-002	0.0	3.712300e-001	5.894684e-002	0.0	3.865400e-001	5.847521e-002	0.0	4.019700e-001	5.792324e-002	0.0	4.175000e-001	5.729417e-002	0.0	4.331100e-001	5.659142e-002	0.0	4.487800e-001	5.581860e-002	0.0	4.645100e-001	5.497836e-002	0.0	4.802700e-001	5.407492e-002	0.0	4.960500e-001	5.311154e-002	0.0	5.118400e-001	5.209138e-002	0.0	5.276100e-001	5.101898e-002	0.0	5.433600e-001	4.989684e-002	0.0	5.590600e-001	4.872956e-002	0.0	5.747100e-001	4.751951e-002	0.0	5.902800e-001	4.627133e-002	0.0	6.057600e-001	4.498807e-002	0.0	6.211300e-001	4.367359e-002	0.0	6.363800e-001	4.233084e-002	0.0	6.515000e-001	4.096270e-002	0.0	6.664700e-001	3.957289e-002	0.0	6.812700e-001	3.816515e-002	0.0	6.958900e-001	3.674225e-002	0.0	7.103200e-001	3.530689e-002	0.0	7.245300e-001	3.386377e-002	0.0	7.385200e-001	3.241453e-002	0.0	7.522800e-001	3.096181e-002	0.0	7.657800e-001	2.951034e-002	0.0	7.790100e-001	2.806277e-002	0.0	7.919700e-001	2.662063e-002	0.0	8.046400e-001	2.518764e-002	0.0	8.170100e-001	2.376642e-002	0.0	8.290500e-001	2.236196e-002	0.0	8.407700e-001	2.097463e-002	0.0	8.521600e-001	1.960709e-002	0.0	8.631800e-001	1.826569e-002	0.0	8.738500e-001	1.694956e-002	0.0	8.841500e-001	1.566269e-002	0.0	8.940600e-001	1.440916e-002	0.0	9.035800e-001	1.319056e-002	0.0	9.127000e-001	1.200973e-002	0.0	9.214000e-001	1.087086e-002	0.0	9.296900e-001	9.774221e-003	0.0	9.375400e-001	8.725349e-003	0.0	9.449600e-001	7.724467e-003	0.0	9.519400e-001	6.774429e-003	0.0	9.584700e-001	5.878077e-003	0.0	9.645400e-001	5.038225e-003	0.0	9.701500e-001	4.256269e-003	0.0	9.752800e-001	3.536324e-003	0.0	9.799500e-001	2.876826e-003	0.0	9.841300e-001	2.283177e-003	0.0	9.878400e-001	1.753610e-003	0.0	9.910500e-001	1.293364e-003	0.0	9.937800e-001	9.004365e-004	0.0	9.960200e-001	5.769984e-004	0.0	9.977600e-001	3.251112e-004	0.0	9.990000e-001	1.452538e-004	0.0	9.997500e-001	3.632897e-005	0.0	1.000000e+000	0.000000e+000	0.0	1.984229e+001	2.506660e+000	0.0	1.937166e+001	4.973800e+000	0.0	1.859553e+001	7.362490e+000	0.0	1.752613e+001	9.635070e+000	0.0	1.618034e+001	1.175571e+001	0.0	1.457937e+001	1.369094e+001	0.0	1.274848e+001	1.541027e+001	0.0	1.071654e+001	1.688656e+001	0.0	8.515590e+000	1.809654e+001	0.0	6.180340e+000	1.902113e+001	0.0	3.747630e+000	1.964575e+001	0.0	1.255810e+000	1.996053e+001	0.0	-1.255810e+000	1.996053e+001	0.0	-3.747630e+000	1.964574e+001	0.0	-6.180340e+000	1.902113e+001	0.0	-8.515590e+000	1.809654e+001	0.0	-1.071654e+001	1.688656e+001	0.0	-1.274848e+001	1.541026e+001	0.0	-1.457937e+001	1.369094e+001	0.0	-1.618034e+001	1.175570e+001	0.0	-1.752613e+001	9.635070e+000	0.0	-1.859553e+001	7.362490e+000	0.0	-1.937166e+001	4.973800e+000	0.0	-1.984229e+001	2.506660e+000	0.0	-2.000000e+001	0.000000e+000	0.0	-1.984229e+001	-2.506670e+000	0.0	-1.937166e+001	-4.973800e+000	0.0	-1.859553e+001	-7.362490e+000	0.0	-1.752613e+001	-9.635080e+000	0.0	-1.618034e+001	-1.175571e+001	0.0	-1.457937e+001	-1.369094e+001	0.0	-1.274848e+001	-1.541027e+001	0.0	-1.071653e+001	-1.688656e+001	0.0	-8.515580e+000	-1.809654e+001	0.0	-6.180340e+000	-1.902113e+001	0.0	-3.747620e+000	-1.964575e+001	0.0	-1.255810e+000	-1.996053e+001	0.0	1.255810e+000	-1.996053e+001	0.0	3.747630e+000	-1.964574e+001	0.0	6.180340e+000	-1.902113e+001	0.0	8.515590e+000	-1.809654e+001	0.0	1.071654e+001	-1.688656e+001	0.0	1.274848e+001	-1.541026e+001	0.0	1.457937e+001	-1.369094e+001	0.0	1.618034e+001	-1.175570e+001	0.0	1.752614e+001	-9.635070e+000	0.0	1.859553e+001	-7.362490e+000	0.0	1.937166e+001	-4.973790e+000	0.0	1.984229e+001	-2.506660e+000	0.0	2.000000e+001	0.000000e+000	0.0	6.071847e-002	-4.599300e-002	0.0	6.602584e-001	-5.397924e-002	0.0	4.259462e-001	7.123173e-002	0.0	6.898893e-001	5.084802e-002	0.0	3.793152e-001	-7.273116e-002	0.0	9.994604e-001	-7.202256e-004	0.0	9.985440e-001	-1.312423e-003	0.0	7.737237e-001	-4.090969e-002	0.0	6.898893e-001	-5.084802e-002	0.0	-1.456769e-003	6.464601e-003	0.0	7.467285e-001	-4.428984e-002	0.0	5.836398e-001	6.115854e-002	0.0	9.927702e-001	-3.577733e-003	0.0	9.898650e-001	-4.450375e-003	0.0	5.991925e-001	5.980916e-002	0.0	7.187526e-001	-4.760665e-002	0.0	-1.597618e-003	7.671995e-004	0.0	9.864674e-001	-5.394793e-003	0.0	9.825871e-001	-6.398977e-003	0.0	-1.456774e-003	-6.464600e-003	0.0	6.451948e-001	-5.549610e-002	0.0	8.243215e-001	-3.409983e-002	0.0	7.996157e-001	-3.751255e-002	0.0	3.487901e-001	7.326090e-002	0.0	8.477112e-001	-3.071909e-002	0.0	2.474256e-001	7.182160e-002	0.0	8.697233e-001	-2.738134e-002	0.0	9.916188e-003	2.185203e-002	0.0	8.902508e-001	-2.411717e-002	0.0	7.700293e-002	-5.054436e-002	0.0	9.092206e-001	-2.095307e-002	0.0	-1.944578e-003	-3.190372e-003	0.0	9.421664e-001	-1.502079e-002	0.0	9.265514e-001	-1.791177e-002	0.0	1.789678e-002	-2.766280e-002	0.0	4.259462e-001	-7.123173e-002	0.0	8.588986e-001	-2.904064e-002	0.0	9.560213e-001	-1.230722e-002	0.0	9.782180e-001	-7.479396e-003	0.0	9.680592e-001	-9.783205e-003	0.0	1.582863e-001	-6.490557e-002	0.0	8.999374e-001	-2.252139e-002	0.0	7.603588e-001	-4.260503e-002	0.0	9.971186e-001	-2.046344e-003	0.0	5.991925e-001	-5.980916e-002	0.0	4.416505e-001	-7.055456e-002	0.0	5.365104e-001	-6.487405e-002	0.0	4.732224e-001	-6.895566e-002	0.0	5.048788e-001	-6.705339e-002	0.0	4.890394e-001	-6.804024e-002	0.0	1.249513e-001	-6.028257e-002	0.0	2.780447e-002	-3.325805e-002	0.0	3.947663e-001	-7.232395e-002	0.0	4.619013e-002	-4.112
[...]
POINT_DATA 5233
SCALARS Density float 1
LOOKUP_TABLE default
1.18061890249975e+00	1.15732940249997e+00	1.14277327250022e+00	1.13056812750053e+00	1.11992383000082e+00	1.11085862750094e+00	1.10334486250070e+00	1.09738497999998e+00	1.09195396499878e+00	1.08569169324722e+00	1.07727472349547e+00	1.06697477874381e+00	1.05765967249274e+00	1.05151886149252e+00	1.04821756324305e+00	1.04611468574406e+00	1.04363587324528e+00	1.03993547124649e+00	1.03517830449758e+00	1.03000045074849e+00	1.02495351874921e+00	1.02028844099977e+00	1.01597327500020e+00	1.01188026225055e+00	1.00786804925085e+00	1.00386239325113e+00	9.99846047251409e-01	9.95824975501683e-01	9.91834902751958e-01	9.87921596752227e-01	9.84079435002478e-01	9.80190262002702e-01	9.76120708752919e-01	9.72005380253203e-01	9.67859897253590e-01	9.63736397753925e-01	9.59690829254162e-01	9.55862276254304e-01	9.51963552504564e-01	9.46718441505317e-01	9.40880231256161e-01	9.35467821756814e-01	9.30318804257273e-01	9.25640712257637e-01	9.19542216258508e-01	9.13034356009527e-01	9.07315577509939e-01	8.99567494260058e-01	8.89747243510291e-01	8.78983873010791e-01	8.68938184261177e-01	8.60276185010951e-01	8.53013218260200e-01	8.47274303259275e-01	8.40895497257939e-01	8.33810646006118e-01	8.25660367753686e-01	8.16901377750716e-01	8.10405110748075e-01	8.06680390496160e-01	8.02978599244013e-01	7.99923617241950e-01	7.99357000990769e-01	8.00434155240170e-01	8.02020835989770e-01	8.03251895489289e-01	8.04507849738704e-01	8.06548690488207e-01	8.09743833237953e-01	8.13998791237949e-01	8.18980732238109e-01	8.24503746738372e-01	8.30550157238713e-01	8.37053322739097e-01	8.43981666489502e-01	8.51345699739957e-01	8.59311809990486e-01	8.68041017241096e-01	8.77491169991763e-01	8.87637789242482e-01	8.98566184243253e-01	9.10319897494071e-01	9.23031772994937e-01	9.36792371745849e-01	9.51763872246805e-01	9.68185889997807e-01	9.86242313248846e-01	1.00622957799992e+00	1.02854949300101e+00	1.05346145175209e+00	1.08146555400311e+00	1.11303728750400e+00	1.14820609500467e+00	1.18707091000499e+00	1.22883852750482e+00	1.27151506250408e+00	1.30922453000277e+00	1.34162049500091e+00	1.34745972749979e+00	1.33609650999912e+00	1.32838398999871e+00	1.29606344999850e+00	1.22933979249835e+00	1.16962494749827e+00	1.11228595749818e+00	1.06066567399804e+00	1.01595607049789e+00	9.77759268747748e-01	9.44922225247619e-01	9.16711337497509e-01	8.92280215747419e-01	8.70787132997350e-01	8.51830018997298e-01	8.34863708247261e-01	8.19579041747239e-01	8.05828997997232e-01	7.93295862247244e-01	7.81650674497271e-01	7.70733311997309e-01	7.60406580747349e-01	7.50680654247391e-01	7.41633646497439e-01	7.33254957997502e-01	7.25327748497582e-01	7.17654158497669e-01	7.10221553497752e-01	7.03280866247830e-01	6.96798128247912e-01	6.90574999498001e-01	6.84414218248094e-01	6.78439304748183e-01	6.72835784998270e-01	6.67772039498361e-01	6.63205478248456e-01	6.59068870998561e-01	6.55228482498671e-01	6.51597399748785e-01	6.48144722998905e-01	6.44783738749026e-01	6.41528230249134e-01	6.38427594499211e-01	6.35674560999285e-01	6.33609320499556e-01	6.32277622500033e-01	6.30737029750322e-01	6.28778867750469e-01	6.27573871750761e-01	6.27681875751112e-01	6.29246246250886e-01	6.33465302000112e-01	6.39196041749075e-01	6.47845818247876e-01	6.60872582996952e-01	6.81372447246125e-01	7.06042578495589e-01	7.29159967246367e-01	7.53974373247733e-01	7.83045230498993e-01	8.08983534500357e-01	8.31841688501547e-01	8.56567638752111e-01	8.84654902502715e-01	9.12287951752995e-01	9.33953351252875e-01	9.48965592252281e-01	9.60563352501137e-01	9.70527556750471e-01	9.77052022500243e-01	9.83237812999936e-01	9.89011339249826e-01	9.93639758499873e-01	9.97121684249848e-01	1.00038712499971e+00	1.00349360599967e+00	1.00669393724967e+00	1.01008401349967e+00	1.01366004174969e+00	1.01746733399973e+00	1.02156898249979e+00	1.02598042524989e+00	1.03053506000002e+00	1.03487721325018e+00	1.03857936275036e+00	1.04154767575050e+00	1.04436508275060e+00	1.04808839650062e+00	1.05375738750054e+00	1.06142941450037e+00	1.06964242400015e+00	1.07670053749993e+00	1.08244507499974e+00	1.08772863749962e+00	1.09357532999956e+00	1.10075340249956e+00	1.10917348249961e+00	1.11906437499969e+00	1.13020903749976e+00	1.14398024249983e+00	1.15961019499992e+00	1.15441519749984e+00	9.98818497249990e-01	9.99668673749998e-01	9.99747624749998e-01	9.99614264499997e-01	9.99523545499996e-01	9.99408858749995e-01	9.99272542499994e-01	9.99102841749994e-01	9.98918575499992e-01	9.98795007999991e-01	9.98734728999991e-01	9.98818976749992e-01	9.99011373999994e-01	9.99362293999996e-01	9.99653639999998e-01	9.99889329499999e-01	1.00002284650000e+00	1.00010716050000e+00	1.00016093325000e+00	1.00018639250000e+00	1.00020169000000e+00	1.00020861500000e+00	1.00021454750000e+00	1.00022268500000e+00	1.00022956000000e+00	1.00024036000000e+00	1.00025929250000e+00	1.00028346250000e+00	1.00031726000000e+00	1.00036793000000e+00	1.00042481500000e+00	1.00051776000000e+00	1.00060807500000e+00	1.00076093500001e+00	1.00090233250001e+00	1.00107565000001e+00	1.00125664200001e+00	1.00132749875001e+00	1.00134663375001e+00	1.00124391150001e+00	1.00112873900001e+00	1.00096102475001e+00	1.00080460500001e+00	1.00065056275000e+00	1.00051338775000e+00	1.00034525450000e+00	1.00021111775000e+00	1.00022977525000e+00	9.99369039999994e-01	9.98232141499983e-01	9.44927429996066e-01	9.51851734254667e-01	6.33714765750345e-01	9.02474754003122e-01	8.25172445502101e-01	1.16058319999985e+00	1.14890960000000e+00	9.83845491002482e-01	9.59661427004115e-01	1.28104059999888e+00	9.75846862502908e-01	7.20959655495582e-01	1.11568301500047e+00	1.10759742250037e+00	7.43138418247180e-01	9.67647185753658e-01	1.33394453249925e+00	1.10076824249995e+00	1.09483543999918e+00	1.32719566250126e+00	9.45859063005634e-01	9.99329924251444e-01	9.91451621751989e-01	6.45023651499116e-01	1.00727893525088e+00	6.72588380748372e-01	1.01529753350024e+00	1.03698211224823e+00	1.02389485274934e+00	9.17664849744340e-01	1.03356658549797e+00	1.34402235000031e+00	1.04847541299424e+00	1.04252358774611e+00	1.09145505175260e+00	8.48110660008555e-01	1.01126297325058e+00	1.05650174549363e+00	1.08888552499810e+00	1.07315706274541e+00	8.42496931989396e-01	1.02863569574872e+00	9.79904370502688e-01	1.13583606750019e+00	9.30331421257222e-01	8.53489640009560e-01	9.06891184509756e-01	8.67564507510984e-01	8.87361901010260e-01	8.76656574260858e-01	8.65360044240801e-01	1.03869944650084e+00	8.34110790504886e-01	9.77183981747927e-01	8.41184552506943e-01	8.05859258992721e-01	8.12888414996977e-01	1.01611942824987e+00	8.05293201490479e-01	1.04580381299512e+00	8.49630424239824e-01	8.24073561238394e-01	9.05571080743537e-01	8.83875291492062e-01	9.18402323008933e-01	8.35830801488993e-01	9.35112342006914e-01	1.01947244274984e+00	1.06371002275176e+00	1.12515046000037e+00	1.19179382000397e+00	9.65238443247929e-01	1.03834665099708e+00	1.05159079024368e+00	1.08187581774681e+00	1.23210217249875e+00	1.00330484075117e+00	8.10105408239195e-01	9.13086836509620e-01	9.71763775253262e-01	9.87632160002247e-01	8.74215210491397e-01	8.14860517488308e-01	9.25645173257699e-01	9.56100103504209e-01	9.60349405246982e-01	1.22952840000379e+00	1.12208346500330e+00	8.17188855249042e-01	8.29694808488651e-01	1.19352598999966e+00	8.11915249988636e-01	8.94337028242778e-01	8.04452692991204e-01	8.08793281739719e-01	8.59548483010391e-01	9.63591043253935e-01	1.32024669249897e+00	1.30146697750235e+00	6.55990049997264e-01	1.33974629749961e+00	9.10093436747692e-01	8.32614849247432e-01	8.67013499997529e-01	7.49682353247539e-01	6.35749198250191e-01	1.12404431749975e+00	6.45648102248450e-01	6.31302103501194e-01	1.07375976500001e+00	1.05936068875035e+00	1.02146836974980e+00	6.34247320250478e-01	6.31545774000510e-01	6.39057676749281e-01	1.03805738325024e+00	1.02988705824998e+00	7.92026687497421e-01	1.07991403499985e+00	1.05298672125046e+00	1.04462532900046e+00	7.69396327747468e-01	8.17916923747411e-01	6.59532431498674e-01	6.67887147498465e-01	7.09445958747882e-01	6.52023381748905e-01	6.31111996750945e-01	6.37162445999734e-01	7.24330626247741e-01	7.40847397997597e-01	8.00678603749667e-01	6.96045630748039e-01	6.83466609748204e-01	8.46363253751867e-01	6.96681777245616e-01	9.69506586750604e-01	9.45718333002834e-01	9.94195614999861e-01	9.82770902750100e-01	1.00726268074970e+00	1.00113780549978e+00	1.02559455099987e+00	1.01396010099972e+00	1.04818920375049e+00	1.03413764350010e+00	1.06670462900018e+00	1.01051594224970e+00	1.01759691649975e+00	9.97917992249931e-01	1.00422371399970e+00	9.76595457000375e-01	9.88850928999835e-01	9.27913301752921e-01	9.57390512251695e-01	8.23013283001200e-01	8.73406357502396e-01	6.72137398746535e-01	7.71036568998351e-01	6.89625340248122e-01	6.77794859498286e-01	7.16657481747811e-01	7.02665535747958e-01	8.48873148247472e-01	7.32466053247669e-01	9.98741502748073e-01	8.87314009997602e-01	8.19019341988247e-01	1.12827301699853e+00	1.06396038724424e+00	9.95359882001719e-01	8.09827401495167e-01	8.97819388259881e-01	1.18028591499865e+00	9.35852192747800e-01	1.08013211799839e+00	7.80367325247444e-01	8.04468048247409e-01	6.63557329998566e-01	7.59163604497498e-01	1.08552244499973e+00	1.09126426249966e+00	6.55706158248787e-01	1.09781936749964e+00	1.10539218249965e+00	6.48495600249022e-01	6.41822084749180e-01	1.04147858875037e+00	1.17083571999995e+00	1.13596533749981e+00	1.14757849249986e+00	9.40314257006345e-01	9.95699557498893e-01	1.11414445999970e+00	6.39050141249657e-01	1.26731340250322e+00	1.15570156250378e+00	9.30738908745184e-01	8.57221401240280e-01	8.07093427240083e-01	8.16785830497599e-01	1.26126041749921e+00	1.30045087499929e+00	8.12738954490414e-01	9.63669994503899e-01	1.03679937999757e+00	1.18670480750328e+00	7.12526512995331e-01	9.59936967754025e-01	9.87460999502245e-01	1.10394609499980e+00	8.13760643243999e-01	1.01076261050060e+00	1.00288820025119e+00	9.13064890743871e-01	1.30790238500156e+00	8.25178857988699e-01	1.12398895250268e+00	1.06229156124490e+00	8.56141387240224e-01	9.67655478003649e-01	9.51222405754950e-01	8.60143049009691e-01	9.25355686244645e-01	8.34632081003392e-01	1.02757384499891e+00	9.91198840251999e-01	1.08720131349868e+00	9.80158933248222e-01	8.62200361502102e-01	1.00794118249973e+00	7.69179657497626e-01	8.90850712002885e-01	7.24567121247878e-01	1.01787792899977e+00	1.09440377499971e+00	6.53017937749004e-01	6.45787185499023e-01	1.05257612775036e+00	1.02155648949981e+00	1.10097052999970e+00	1.05802285825030e+00	1.08263030249983e+00	6.84238762748306e-01	6.56869614748900e-01	6.90018184998227e-01	7.79799869497606e-01	9.56336701004209e-01	8.30216007988803e-01	1.04791590949852e+00	7.40843421997767e-01	8.63316348997704e-01	1.07075798000006e+00	1.10848316249972e+00	1.02542794299987e+00	8.48804953239765e-01	1.18477075999984e+00	1.12627786749979e+00	1.11681986499975e+00	1.12964727824883e+00	1.21927876749906e+00	1.21979637500322e+00	1.33699392500012e+00	1.33261590499962e+00	1.09553785000210e+00	1.19437523249972e+00	9.52860333746283e-01	1.13849266499999e+00	1.11914646250014e+00	6.39680269500199e-01	9.13085981009463e-01	1.09750676999929e+00	1.01883145124989e+00	7.34784610496391e-01	1.11104407000007e+00	1.32906458500079e+00	8.54903368508810e-01	6.41792704749956e-01	1.00682286675090e+00	6.69309718248578e-01	1.01475106900027e+00	1.02308645449944e+00	9.38576910495450e-01	1.03220223824828e+00	1.04106536749679e+00	1.05156309674478e+00	1.04551742700060e+00	1.05607742224461e+00	1.06997196599563e+00	1.09140176499854e+00	8.72292008741210e-01	9.79734639002670e-01	9.83686645752467e-01	1.12828247750009e+00	8.67245104260435e-01	8.75672831260626e-01	8.85472838760219e-01	1.06953908100140e+00	8.42309223255741e-01	8.48869412507497e-01	8.16976863246064e-01	1.00356068124889e+00	1.04478933224601e+00	1.04809512674529e+00	8.63974165490704e-01	9.01623802993131e-01	9.18223660259072e-01	9.35105724006911e-01	1.07789114099661e+00	1.08504821749763e+00	9.71644540003313e-01	9.75748335252932e-01	8.91060171742433e-01	8.81285308491790e-01	9.24929439507988e-01	9.30719240507192e-01	9.85269742998014e-01	9.68417439747141e-01	1.15436405000309e+00	8.20022513997794e-01	8.26232354000466e-01	8.42109796989363e-01	8.35925718489043e-01	8.21253152988835e-01	8.18572487489236e-01	8.11079569740893e-01	8.11110180991967e-01	8.16689017739722e-01	1.32502389999941e+00	1.25298075250288e+00	8.81928464997775e-01	1.08834446749975e+00	6.53672549747794e-01	6.40862261750052e-01	6.36635967750834e-01	6.35633670251139e-01	1.07688760749994e+00	1.06431368625019e+00	1.03738178650015e+00	6.35652208500645e-01	6.37220777750328e-01	6.43671893249415e-01	1.03349149575004e+00	1.04816594775037e+00	8.30937333497617e-01	8.46390052747651e-01	6.78919922748391e-01	6.73916847998482e-01	7.32427424997820e-01	7.49966576747717e-01	7.59342730247665e-01	9.94270528749869e-01	9.66194821001030e-01	9.54226936752288e-01	9.88359087999899e-01	1.00501941649973e+00	1.02944376074995e+00	1.01437686949975e+00	1.01105409249974e+00	1.00175451499988e+00	9.98587918499949e-01	9.82114366000293e-01	9.75926866500468e-01	9.40280715253016e-01	9.19560450002998e-01	8.36897138251664e-01	8.14491986250435e-01	6.87043481495988e-01	6.66436073496893e-01	7.89727073749203e-01	7.59080850997756e-01	6.96137841748152e-01	7.02807233748082e-01	7.09805044998012e-01	7.17142322247944e-01	1.01235313274837e+00	9.02659276997864e-01	9.25853895747968e-01	9.95038390751738e-01	9.98959499501467e-01	8.96162283009716e-01	9.05499230009573e-01	1.17478973249896e+00	9.51566185498086e-01	7.91284509247597e-01	8.03603670497595e-01	6.60798086498788e-01	6.64934945748681e-01	6.46286451999143e-01	6.49453123249063e-01	1.04448525225032e+00	1.04100929550025e+00	9.40090065256451e-01	9.45391788255815e-01	1.02354340699976e+00	1.28383407500234e+00	8.14892606990113e-01	1.30917553000109e+00	8.43473530754325e-01	8.18902579490788e-01	9.91291665001977e-01	9.12948424509217e-01	1.03982564549733e+00	1.09700488999975e+00	1.09101702999977e+00	1.06254243100016e+00	1.16957599749921e+00	1.10392373499975e+00	1.13651566749983e+00	1.15073203249990e+00	1.12998527999991e+00	1.17518055249979e+00	1.09914707750174e+00	1.30755712749973e+00	9.21123288744263e-01	1.04377492749670e+00	1.10684179999971e+00	7.04182556745405e-01	1.15034033749990e+00	1.21085316000272e+00	9.67948982753596e-01	1.26672445500215e+00	9.71885903003307e-01	1.12506718000221e+00	1.01831112249994e+00	1.18156480500273e+00	8.21636532245058e-01	1.01432552475030e+00	9.64145597753796e-01	1.11432359499988e+00	1.15290611000256e+00	1.07976637499989e+00	6.53774246748401e-01	1.05218370725027e+00	8.52561652501852e-01	1.11064993499977e+00	6.47671940249603e-01	6.80533363498498e-01	6.62102598998884e-01	7.41786023997897e-01	8.44481228497819e-01	1.14463197249986e+00	1.28670706000165e+00	1.24169108749944e+00	1.02394872599863e+00	1.27987463749959e+00	1.06767012024603e+00	9.33493367745009e-01	1.32761155249987e+00	8.62973153490635e-01	8.67442317259770e-01	1.07473810150114e+00	1.09257025499893e+00	1.00870791449975e+00	9.94381197749860e-01	8.81033442502487e-01	1.08536474249982e+00	1.05703408425023e+00	1.02533722824987e+00	1.02165417324982e+00	6.66370028748785e-01	6.75493918998589e-01	6.97355010498253e-01	7.91304400997744e-01	9.56576455504286e-01	9.60557171503911e-01	8.36824831739259e-01	1.05715429799878e+00	7.50177785247854e-01	1.07417338749998e+00	1.11802738999979e+00	1.13037415499908e+00	1.20805523249932e+00	1.23951409750250e+00	1.31977750500048e+00	1.05172446475045e+00	1.16650037999973e+00	1.15704491249981e+00	1.07475980874672e+00	1.10031375499938e+00	7.27501584995492e-01	8.61552266508947e-01	6.46648051750039e-01	1.00648801275092e+00	1.01038742675062e+00	1.02243078424954e+00	1.02672072024907e+00	9.61087298996555e-01	9.46810934995775e-01	1.03110635374855e+00	1.03556873299796e+00	1.05564471349548e+00	1.06110184299559e+00	1.09415817999889e+00	9.83791898502419e-01	9.87566381252207e-01	1.12191579999991e+00	8.75144772760282e-01	8.84183954760093e-01	8.50212293006338e-01	8.56498866007936e-01	1.03071306674972e+00	1.04748854824612e+00	1.05124949674568e+00	8.79771595491687e-01	8.71134390241158e-01	9.18795454508989e-01	9.24539402508232e-01	1.08163283999750e+00	1.08800061749824e+00	9.75876167252943e-01	9.79854641752630e-01	9.09598593993551e-01	8.98720199742861e-01	8.88791095242228e-01	9.31080031007220e-01	9.35695398756815e-01	1.01148990124896e+00	9.93423756998158e-01	9.76557081247350e-01	8.24137535496752e-01	8.28238784248824e-01	8.35622269501763e-01	8.55685328490172e-01	8.48973100239801e-01	8.42660565739488e-01	8.31899053989198e-01	8.28140610739386e-01	8.17662006741440e-01	8.18569922492862e-01	8.25555373489792e-01	8.96934401748013e-01	6.43284754750431e-01	6.40638688251137e-01	1.06836478500007e+00	6.40767790500860e-01	6.41569172000359e-01	6.43883483750170e-01	6.48794634749619e-01	1.03682409575008e+00	8.60523013247869e-01	8.78021168247934e-01	6.85755827248412e-01	6.91473999248331e-01	7.59391693997824e-01	7.69812805997798e-01	7.80481092497766e-01	9.63046097001564e-01	1.03302017650000e+00	1.02914293974993e+00	1.01812780674979e+00	1.01479183674977e+00	1.01170783249976e+00	1.00572670824980e+00	1.00249118099996e+00	9.99222142249928e-01	9.88052422000051e-01	9.81825726750404e-01	9.74937240000611e-01	9.51336471252762e-01	9.34763160002956e-01	9.10293384753072e-01	8.28974287501148e-01	6.79389749246429e-01	6.63754595997271e-01	8.06699819249944e-01	7.78349574998517e-01	7.49686669747190e-01	7.03692619498182e-01	7.10276520248116e-01	7.17618617998060e-01	7.25389405498003e-01	7.33631565997950e-01	9.17559655748112e-01	9.40614599998227e-01	9.95005998751727e-01	9.98826279751464e-01	1.00261710350120e+00	8.94516192259597e-01	9.04371544759328e-01	9.66154295498353e-01	9.93683512748488e-01	8.03051833747746e-01	8.15932096747762e-01	8.29699614497787e-01	6.70841847998684e-01	6.51491982249151e-01	6.54729670999012e-01	6.58244845998964e-01	1.04799295125026e+00	1.04421283700022e+00	1.04055632225016e+00	9.40376381506440e-01	9.45446552005892e-01	9.50872166755180e-01	8.23432820990184e-01	8.21165151240470e-01	1.28888969500128e+00	9.29394022494691e-01	1.11153966499979e+00	1.08225520749986e+00	9.19283927758729e-01	1.28750718750000e+00	1.13780218499986e+00	1.04287768174726e+00	1.04684365724680e+00	1.05657886925031e+00	1.09894137999978e+00	6.52123667249937e-01	1.26742815500167e+00	1.06370000699901e+00	1.19999114500231e+00	1.06108744500012e+00	1.10513053249978e+00	1.22461074749966e+00	8.44662368001631e-01	1.19537817999953e+00	1.15338064499992e+00	1.16986101499969e+00	9.94983171251713e-01	8.71086306741127e-01	1.10118669750141e+00	8.52760485255053e-01	9.41847066745397e-01	8.69247015008941e-01	8.26496564241330e-01	1.08762581499982e+00	6.94515795495823e-01	1.05611208325017e+00	1.05160241100019e+00	9.93722542749910e-01	7.61598907497956e-01	6.94505840748439e-01	1.10274631499942e+00	8.74350059998081e-01	1.01812551124997e+00	1.12531316499981e+00	1.09317246499979e+00	1.12309136249979e+00	1.07854422999754e+00	1.12441573750180e+00	9.68246401253506e-01	1.22524571000220e+00	9.72336581503238e-01	9.75964823002960e-01	1.14938066250210e+00	1.10919204499963e+00	1.17482213250227e+00	1.00892569974977e+00	6.55427377249002e-01	6.78207981498684e-01	1.25846349749980e+00	1.09546315774915e+00	8.71324804002204e-01	1.02531500674987e+00	6.73623825248772e-01	6.83486810248599e-01	6.88622779748515e-01	9.60990014753859e-01	9.64944079503618e-01	1.07692435999992e+00	1.12812004249928e+00	1.16221900249941e+00	1.24902315000200e+00	1.30134081250079e+00	1.07824269500090e+00	1.07221418749698e+00	1.09661922749909e+00	7.22481727995155e-01	1.01027503250061e+00	1.01414526300031e+00	1.02216837824961e+00	1.02623671824919e+00	9.69127445246842e-01	9.55028331996116e-01	1.03042424849875e+00	1.03467163274826e+00	1.03884799949776e+00	1.06013060274627e+00	1.06595542574653e+00	9.87491479752169e-01	9.91429585501924e-01	1.11605937999975e+00	8.75948687759606e-01	8.84202637759717e-01	8.58757251506831e-01	8.64124546508081e-01	1.05081192049643e+00	1.05506424349625e+00	8.88117066242233e-01	8.78821161491650e-01	9.25162267758213e-01	1.08464520749811e+00	1.09064729499864e+00	9.79985284502603e-01	9.84351641502333e-01	9.17741525743992e-01	9.07011816243339e-01	8.97413352492775e-01	9.30890740