# vtk DataFile Version 3.0
vtk output
ASCII
DATASET UNSTRUCTURED_GRID
POINTS 5233 float
9.997500e-001	-3.633219e-005	0.0	9.990000e-001	-1.454571e-004	0.0	9.977600e-001	-3.273388e-004	0.0	9.960200e-001	-5.890023e-004	0.0	9.937800e-001	-9.436742e-004	0.0	9.910500e-001	-1.412324e-003	0.0	9.878400e-001	-2.022284e-003	0.0	9.841300e-001	-2.805324e-003	0.0	9.799500e-001	-3.768684e-003	0.0	9.752800e-001	-4.903711e-003	0.0	9.701500e-001	-6.158554e-003	0.0	9.645400e-001	-7.469403e-003	0.0	9.584700e-001	-8.756886e-003	0.0	9.519400e-001	-9.961775e-003	0.0	9.449600e-001	-1.105310e-002	0.0	9.375400e-001	-1.203300e-002	0.0	9.296900e-001	-1.292751e-002	0.0	9.214000e-001	-1.377379e-002	0.0	9.127000e-001	-1.460111e-002	0.0	9.035800e-001	-1.543192e-002	0.0	8.940600e-001	-1.627426e-002	0.0	8.841500e-001	-1.712901e-002	0.0	8.738500e-001	-1.799462e-002	0.0	8.631800e-001	-1.886869e-002	0.0	8.521600e-001	-1.975204e-002	0.0	8.407700e-001	-2.065227e-002	0.0	8.290500e-001	-2.157498e-002	0.0	8.170100e-001	-2.252945e-002	0.0	8.046400e-001	-2.352621e-002	0.0	7.919700e-001	-2.457086e-002	0.0	7.790100e-001	-2.566794e-002	0.0	7.657800e-001	-2.681798e-002	0.0	7.522800e-001	-2.802009e-002	0.0	7.385200e-001	-2.926978e-002	0.0	7.245300e-001	-3.055856e-002	0.0	7.103200e-001	-3.187828e-002	0.0	6.958900e-001	-3.322116e-002	0.0	6.812700e-001	-3.457674e-002	0.0	6.664700e-001	-3.593713e-002	0.0	6.515000e-001	-3.729559e-002	0.0	6.363800e-001	-3.864587e-002	0.0	6.211300e-001	-3.998323e-002	0.0	6.057600e-001	-4.130518e-002	0.0	5.902800e-001	-4.261035e-002	0.0	5.747100e-001	-4.389739e-002	0.0	5.590600e-001	-4.516627e-002	0.0	5.433600e-001	-4.641546e-002	0.0	5.276100e-001	-4.764569e-002	0.0	5.118400e-001	-4.885478e-002	0.0	4.960500e-001	-5.004217e-002	0.0	4.802700e-001	-5.120413e-002	0.0	4.645100e-001	-5.233746e-002	0.0	4.487800e-001	-5.343793e-002	0.0	4.331100e-001	-5.449897e-002	0.0	4.175000e-001	-5.551521e-002	0.0	4.019700e-001	-5.647913e-002	0.0	3.865400e-001	-5.738272e-002	0.0	3.712300e-001	-5.821757e-002	0.0	3.560400e-001	-5.897614e-002	0.0	3.409900e-001	-5.964966e-002	0.0	3.261100e-001	-6.022919e-002	0.0	3.114000e-001	-6.070732e-002	0.0	2.968700e-001	-6.107647e-002	0.0	2.825500e-001	-6.132909e-002	0.0	2.684500e-001	-6.145892e-002	0.0	2.545700e-001	-6.146021e-002	0.0	2.409400e-001	-6.132790e-002	0.0	2.275700e-001	-6.105792e-002	0.0	2.144700e-001	-6.064697e-002	0.0	2.016600e-001	-6.009302e-002	0.0	1.891400e-001	-5.939409e-002	0.0	1.769300e-001	-5.855007e-002	0.0	1.650400e-001	-5.756133e-002	0.0	1.534900e-001	-5.643018e-002	0.0	1.422900e-001	-5.515923e-002	0.0	1.314400e-001	-5.375064e-002	0.0	1.209500e-001	-5.220835e-002	0.0	1.108500e-001	-5.054068e-002	0.0	1.011300e-001	-4.875060e-002	0.0	9.181000e-002	-4.684686e-002	0.0	8.290000e-002	-4.483756e-002	0.0	7.440000e-002	-4.272910e-002	0.0	6.633000e-002	-4.053348e-002	0.0	5.869000e-002	-3.825835e-002	0.0	5.149000e-002	-3.591452e-002	0.0	4.474000e-002	-3.351361e-002	0.0	3.844000e-002	-3.106403e-002	0.0	3.260000e-002	-2.857797e-002	0.0	2.723000e-002	-2.606843e-002	0.0	2.232000e-002	-2.353842e-002	0.0	1.790000e-002	-2.101147e-002	0.0	1.395000e-002	-1.848339e-002	0.0	1.049000e-002	-1.597247e-002	0.0	7.520000e-003	-1.348416e-002	0.0	5.040000e-003	-1.102090e-002	0.0	3.050000e-003	-8.579982e-003	0.0	1.560000e-003	-6.167519e-003	0.0	5.600000e-004	-3.745200e-003	0.0	6.000000e-005	-1.269346e-003	0.0	0.000000e+000	0.000000e+000	0.0	6.000000e-005	1.362079e-003	0.0	5.600000e-004	4.075488e-003	0.0	1.560000e-003	6.682120e-003	0.0	3.050000e-003	9.195297e-003	0.0	5.040000e-003	1.164739e-002	0.0	7.520000e-003	1.403351e-002	0.0	1.049000e-002	1.636223e-002	0.0	1.395000e-002	1.863900e-002	0.0	1.790000e-002	2.086745e-002	0.0	2.232000e-002	2.304073e-002	0.0	2.723000e-002	2.517153e-002	0.0	3.260000e-002	2.724893e-002	0.0	3.844000e-002	2.927900e-002	0.0	4.474000e-002	3.125916e-002	0.0	5.149000e-002	3.318704e-002	0.0	5.869000e-002	3.506278e-002	0.0	6.633000e-002	3.688337e-002	0.0	7.440000e-002	3.864576e-002	0.0	8.290000e-002	4.034881e-002	0.0	9.181000e-002	4.198715e-002	0.0	1.011300e-001	4.355924e-002	0.0	1.108500e-001	4.506147e-002	0.0	1.209500e-001	4.648897e-002	0.0	1.314400e-001	4.784112e-002	0.0	1.422900e-001	4.911206e-002	0.0	1.534900e-001	5.029906e-002	0.0	1.650400e-001	5.140054e-002	0.0	1.769300e-001	5.241404e-002	0.0	1.891400e-001	5.333679e-002	0.0	2.016600e-001	5.416742e-002	0.0	2.144700e-001	5.490450e-002	0.0	2.275700e-001	5.554829e-002	0.0	2.409400e-001	5.609840e-002	0.0	2.545700e-001	5.655553e-002	0.0	2.684500e-001	5.692072e-002	0.0	2.825500e-001	5.719502e-002	0.0	2.968700e-001	5.738055e-002	0.0	3.114000e-001	5.747923e-002	0.0	3.261100e-001	5.749311e-002	0.0	3.409900e-001	5.742445e-002	0.0	3.560400e-001	5.727518e-002	0.0	3.712300e-001	5.704731e-002	0.0	3.865400e-001	5.674267e-002	0.0	4.019700e-001	5.636234e-002	0.0	4.175000e-001	5.590741e-002	0.0	4.331100e-001	5.537873e-002	0.0	4.487800e-001	5.477696e-002	0.0	4.645100e-001	5.410176e-002	0.0	4.802700e-001	5.335390e-002	0.0	4.960500e-001	5.253340e-002	0.0	5.118400e-001	5.164043e-002	0.0	5.276100e-001	5.067676e-002	0.0	5.433600e-001	4.964301e-002	0.0	5.590600e-001	4.854249e-002	0.0	5.747100e-001	4.737744e-002	0.0	5.902800e-001	4.615336e-002	0.0	6.057600e-001	4.487539e-002	0.0	6.211300e-001	4.355061e-002	0.0	6.363800e-001	4.218625e-002	0.0	6.515000e-001	4.079025e-002	0.0	6.664700e-001	3.937195e-002	0.0	6.812700e-001	3.794080e-002	0.0	6.958900e-001	3.650485e-002	0.0	7.103200e-001	3.507109e-002	0.0	7.245300e-001	3.364695e-002	0.0	7.385200e-001	3.223473e-002	0.0	7.522800e-001	3.083526e-002	0.0	7.657800e-001	2.944877e-002	0.0	7.790100e-001	2.807102e-002	0.0	7.919700e-001	2.669487e-002	0.0	8.046400e-001	2.531444e-002	0.0	8.170100e-001	2.392340e-002	0.0	8.290500e-001	2.252017e-002	0.0	8.407700e-001	2.110279e-002	0.0	8.521600e-001	1.967721e-002	0.0	8.631800e-001	1.825992e-002	0.0	8.738500e-001	1.686616e-002	0.0	8.841500e-001	1.552092e-002	0.0	8.940600e-001	1.425052e-002	0.0	9.035800e-001	1.307520e-002	0.0	9.127000e-001	1.200752e-002	0.0	9.214000e-001	1.104721e-002	0.0	9.296900e-001	1.017424e-002	0.0	9.375400e-001	9.358222e-003	0.0	9.449600e-001	8.556732e-003	0.0	9.519400e-001	7.732630e-003	0.0	9.584700e-001	6.864024e-003	0.0	9.645400e-001	5.952538e-003	0.0	9.701500e-001	5.021906e-003	0.0	9.752800e-001	4.114512e-003	0.0	9.799500e-001	3.267812e-003	0.0	9.841300e-001	2.518169e-003	0.0	9.878400e-001	1.876851e-003	0.0	9.910500e-001	1.348674e-003	0.0	9.937800e-001	9.207316e-004	0.0	9.960200e-001	5.826694e-004	0.0	9.977600e-001	3.261680e-004	0.0	9.990000e-001	1.453505e-004	0.0	9.997500e-001	3.633050e-005	0.0	1.000000e+000	0.000000e+000	0.0	1.984229e+001	2.506660e+000	0.0	1.937166e+001	4.973800e+000	0.0	1.859553e+001	7.362490e+000	0.0	1.752613e+001	9.635070e+000	0.0	1.618034e+001	1.175571e+001	0.0	1.457937e+001	1.369094e+001	0.0	1.274848e+001	1.541027e+001	0.0	1.071654e+001	1.688656e+001	0.0	8.515590e+000	1.809654e+001	0.0	6.180340e+000	1.902113e+001	0.0	3.747630e+000	1.964575e+001	0.0	1.255810e+000	1.996053e+001	0.0	-1.255810e+000	1.996053e+001	0.0	-3.747630e+000	1.964574e+001	0.0	-6.180340e+000	1.902113e+001	0.0	-8.515590e+000	1.809654e+001	0.0	-1.071654e+001	1.688656e+001	0.0	-1.274848e+001	1.541026e+001	0.0	-1.457937e+001	1.369094e+001	0.0	-1.618034e+001	1.175570e+001	0.0	-1.752613e+001	9.635070e+000	0.0	-1.859553e+001	7.362490e+000	0.0	-1.937166e+001	4.973800e+000	0.0	-1.984229e+001	2.506660e+000	0.0	-2.000000e+001	0.000000e+000	0.0	-1.984229e+001	-2.506670e+000	0.0	-1.937166e+001	-4.973800e+000	0.0	-1.859553e+001	-7.362490e+000	0.0	-1.752613e+001	-9.635080e+000	0.0	-1.618034e+001	-1.175571e+001	0.0	-1.457937e+001	-1.369094e+001	0.0	-1.274848e+001	-1.541027e+001	0.0	-1.071653e+001	-1.688656e+001	0.0	-8.515580e+000	-1.809654e+001	0.0	-6.180340e+000	-1.902113e+001	0.0	-3.747620e+000	-1.964575e+001	0.0	-1.255810e+000	-1.996053e+001	0.0	1.255810e+000	-1.996053e+001	0.0	3.747630e+000	-1.964574e+001	0.0	6.180340e+000	-1.902113e+001	0.0	8.515590e+000	-1.809654e+001	0.0	1.071654e+001	-1.688656e+001	0.0	1.274848e+001	-1.541026e+001	0.0	1.457937e+001	-1.369094e+001	0.0	1.618034e+001	-1.175570e+001	0.0	1.752614e+001	-9.635070e+000	0.0	1.859553e+001	-7.362490e+000	0.0	1.937166e+001	-4.973790e+000	0.0	1.984229e+001	-2.506660e+000	0.0	2.000000e+001	0.000000e+000	0.0	6.058186e-002	-4.629903e-002	0.0	6.601930e-001	-5.041487e-002	0.0	4.258468e-001	6.990454e-002	0.0	6.898625e-001	5.063675e-002	0.0	3.794803e-001	-7.186239e-002	0.0	9.994616e-001	-7.341318e-004	0.0	9.985428e-001	-1.337437e-003	0.0	7.735362e-001	-3.855114e-002	0.0	6.897888e-001	-4.740531e-002	0.0	-1.320585e-003	6.276124e-003	0.0	7.465643e-001	-4.141907e-002	0.0	5.835907e-001	6.097443e-002	0.0	9.927888e-001	-3.722963e-003	0.0	9.899026e-001	-4.713694e-003	0.0	5.991495e-001	5.964729e-002	0.0	7.186184e-001	-4.438403e-002	0.0	-1.509608e-003	7.903724e-004	0.0	9.865316e-001	-5.848647e-003	0.0	9.826825e-001	-7.126831e-003	0.0	-1.314069e-003	-5.894296e-003	0.0	6.451468e-001	-5.189934e-002	0.0	8.241311e-001	-3.322565e-002	0.0	7.994178e-001	-3.583111e-002	0.0	3.487000e-001	7.111838e-002	0.0	8.475456e-001	-3.071382e-002	0.0	2.473793e-001	6.880617e-002	0.0	8.695981e-001	-2.823252e-002	0.0	1.008401e-002	2.067399e-002	0.0	8.901806e-001	-2.575157e-002	0.0	7.684785e-002	-5.144231e-002	0.0	9.092172e-001	-2.325804e-002	0.0	-1.828355e-003	-2.904940e-003	0.0	9.423069e-001	-1.799180e-002	0.0	9.266223e-001	-2.070976e-002	0.0	1.791188e-002	-2.638310e-002	0.0	4.260982e-001	-6.937947e-002	0.0	8.587512e-001	-2.946970e-002	0.0	9.562053e-001	-1.497873e-002	0.0	9.783467e-001	-8.564799e-003	0.0	9.682382e-001	-1.172194e-002	0.0	1.581923e-001	-6.741150e-002	0.0	8.998994e-001	-2.450786e-002	0.0	7.601817e-001	-3.996925e-002	0.0	9.971186e-001	-2.090516e-003	0.0	5.991966e-001	-5.621261e-002	0.0	4.417947e-001	-6.841172e-002	0.0	5.365821e-001	-6.154420e-002	0.0	4.733471e-001	-6.630599e-002	0.0	5.049796e-001	-6.400719e-002	0.0	4.891528e-001	-6.517825e-002	0.0	1.248111e-001	-6.240978e-002	0.0	2.776674e-002	-3.227207e-002	0.0	3.949290e-001	-7.111263e-002	0.0	4.608469e-002	-4.085
[...]
POINT_DATA 5233

SCALARS Density float 1
LOOKUP_TABLE default
1.190770e+000	1.171167e+000	1.160560e+000	1.153341e+000	1.147753e+000	1.142086e+000	1.133921e+000	1.121673e+000	1.104078e+000	1.081199e+000	1.054243e+000	1.025878e+000	1.001006e+000	9.842715e-001	9.770645e-001	9.773446e-001	9.816342e-001	9.868487e-001	9.911508e-001	9.939517e-001	9.955172e-001	9.964282e-001	9.972252e-001	9.982139e-001	9.994751e-001	1.000866e+000	1.002164e+000	1.003103e+000	1.003476e+000	1.003135e+000	1.002006e+000	1.000087e+000	9.974343e-001	9.941463e-001	9.903886e-001	9.862846e-001	9.820119e-001	9.776815e-001	9.734347e-001	9.693569e-001	9.655177e-001	9.619274e-001	9.585668e-001	9.554075e-001	9.524099e-001	9.495162e-001	9.466484e-001	9.437542e-001	9.409577e-001	9.384621e-001	9.359526e-001	9.324397e-001	9.289019e-001	9.314613e-001	9.443570e-001	9.465950e-001	8.879276e-001	7.651100e-001	7.003598e-001	6.999947e-001	7.091825e-001	7.148902e-001	7.180266e-001	7.217533e-001	7.268120e-001	7.327479e-001	7.393994e-001	7.466787e-001	7.545213e-001	7.629300e-001	7.720688e-001	7.822263e-001	7.935521e-001	8.058949e-001	8.189336e-001	8.324580e-001	8.465508e-001	8.614335e-001	8.770956e-001	8.934918e-001	9.106500e-001	9.285210e-001	9.471404e-001	9.665025e-001	9.866517e-001	1.007678e+000	1.029606e+000	1.052548e+000	1.076698e+000	1.102099e+000	1.128996e+000	1.157708e+000	1.188250e+000	1.220858e+000	1.255169e+000	1.290360e+000	1.321505e+000	1.347418e+000	1.348784e+000	1.334389e+000	1.324368e+000	1.285913e+000	1.208193e+000	1.139278e+000	1.075222e+000	1.019791e+000	9.746738e-001	9.388255e-001	9.100771e-001	8.867651e-001	8.674917e-001	8.511687e-001	8.372249e-001	8.250136e-001	8.141788e-001	8.045228e-001	7.956665e-001	7.872376e-001	7.790693e-001	7.710971e-001	7.634452e-001	7.562384e-001	7.493818e-001	7.425545e-001	7.355774e-001	7.286133e-001	7.220098e-001	7.157558e-001	7.096585e-001	7.035761e-001	6.976875e-001	6.922102e-001	6.872946e-001	6.828812e-001	6.788900e-001	6.751922e-001	6.717083e-001	6.683984e-001	6.651728e-001	6.620412e-001	6.590423e-001	6.562731e-001	6.537168e-001	6.511927e-001	6.484860e-001	6.456271e-001	6.426322e-001	6.396888e-001	6.367519e-001	6.339333e-001	6.311037e-001	6.287695e-001	6.274055e-001	6.271452e-001	6.218428e-001	6.118798e-001	6.450067e-001	8.082094e-001	9.751473e-001	9.937961e-001	9.844758e-001	9.817533e-001	9.839380e-001	9.850617e-001	9.857069e-001	9.866616e-001	9.877215e-001	9.887405e-001	9.897892e-001	9.910704e-001	9.927995e-001	9.952294e-001	9.986079e-001	1.003085e+000	1.008659e+000	1.015139e+000	1.022109e+000	1.028994e+000	1.035109e+000	1.039784e+000	1.042440e+000	1.042794e+000	1.041025e+000	1.038002e+000	1.035309e+000	1.034904e+000	1.038556e+000	1.046969e+000	1.059307e+000	1.073509e+000	1.087455e+000	1.099852e+000	1.110252e+000	1.119061e+000	1.126919e+000	1.135342e+000	1.145051e+000	1.157784e+000	1.173310e+000	1.166566e+000	9.992069e-001	9.997450e-001	9.997688e-001	9.996543e-001	9.995654e-001	9.994559e-001	9.993253e-001	9.991624e-001	9.989858e-001	9.988625e-001	9.987960e-001	9.988627e-001	9.990312e-001	9.993514e-001	9.996208e-001	9.998421e-001	9.999695e-001	1.000052e+000	1.000106e+000	1.000133e+000	1.000150e+000	1.000158e+000	1.000165e+000	1.000174e+000	1.000180e+000	1.000190e+000	1.000207e+000	1.000228e+000	1.000257e+000	1.000301e+000	1.000351e+000	1.000432e+000	1.000512e+000	1.000648e+000	1.000775e+000	1.000933e+000	1.001101e+000	1.001172e+000	1.001197e+000	1.001112e+000	1.001016e+000	1.000869e+000	1.000732e+000	1.000595e+000	1.000471e+000	1.000325e+000	1.000212e+000	1.000203e+000	9.995999e-001	9.988240e-001	9.713961e-001	9.728553e-001	6.511904e-001	9.852412e-001	8.272205e-001	1.172619e+000	1.163344e+000	1.000836e+000	9.809266e-001	1.267943e+000	9.958834e-001	6.193978e-001	1.139465e+000	1.131740e+000	6.195609e-001	9.889191e-001	1.330908e+000	1.121689e+000	1.108203e+000	1.332742e+000	9.690288e-001	1.002953e+000	1.003155e+000	6.652024e-001	1.001194e+000	6.917135e-001	9.993358e-001	1.001914e+000	9.979242e-001	9.337345e-001	9.952666e-001	1.345417e+000	9.868213e-001	9.895789e-001	1.132065e+000	9.393642e-001	1.000195e+000	1.004051e+000	1.090756e+000	1.046263e+000	8.116630e-001	9.969272e-001	9.986586e-001	1.153521e+000	9.587041e-001	9.302609e-001	9.467898e-001	9.360146e-001	9.412946e-001	9.389664e-001	8.524824e-001	1.080524e+000	9.427071e-001	1.012179e+000	9.561379e-001	7.191160e-001	7.015479e-001	1.056680e+000	7.265709e-001	9.869207e-001	8.247645e-001	7.781797e-001	9.160211e-001	8.827069e-001	9.526328e-001	7.993978e-001	9.619614e-001	9.986230e-001	1.105618e+000	1.146306e+000	1.220407e+000	9.340870e-001	9.927300e-001	9.918889e-001	1.069708e+000	1.211887e+000	1.002174e+000	7.447718e-001	9.497223e-001	9.925823e-001	1.002337e+000	8.672018e-001	7.603353e-001	9.556100e-001	9.768513e-001	9.913747e-001	1.252160e+000	1.159994e+000	7.131233e-001	7.882423e-001	1.201995e+000	7.522665e-001	8.990114e-001	7.227855e-001	7.379145e-001	9.318699e-001	9.849807e-001	1.313444e+000	1.312334e+000	6.317209e-001	1.338575e+000	8.869163e-001	8.269395e-001	8.527918e-001	7.634790e-001	6.539593e-001	1.138326e+000	6.341128e-001	6.423784e-001	1.069473e+000	1.048650e+000	1.031930e+000	6.395673e-001	6.482725e-001	6.592934e-001	1.041759e+000	1.040005e+000	7.968365e-001	1.081514e+000	1.042496e+000	1.039613e+000	7.792108e-001	8.161281e-001	6.791214e-001	6.871746e-001	7.274875e-001	6.719051e-001	6.453469e-001	6.566398e-001	7.414508e-001	7.561555e-001	9.408231e-001	7.145726e-001	7.022730e-001	9.914123e-001	6.286930e-001	9.891244e-001	9.872796e-001	9.946068e-001	9.914838e-001	1.008505e+000	9.998847e-001	1.036672e+000	1.020102e+000	1.039746e+000	1.041681e+000	1.058027e+000	1.014050e+000	1.026235e+000	9.968785e-001	1.003748e+000	9.902800e-001	9.928773e-001	9.867773e-001	9.880352e-001	1.007539e+000	9.834201e-001	6.316039e-001	6.832598e-001	7.082921e-001	6.967512e-001	7.342975e-001	7.209934e-001	8.390264e-001	7.488493e-001	9.648445e-001	8.686045e-001	7.689434e-001	1.097176e+000	1.023089e+000	1.003329e+000	7.099534e-001	9.439014e-001	1.154106e+000	9.084283e-001	1.045926e+000	7.878395e-001	8.061958e-001	6.830010e-001	7.710904e-001	1.092962e+000	1.103231e+000	6.754398e-001	1.112376e+000	1.120750e+000	6.685129e-001	6.621185e-001	1.040737e+000	1.184216e+000	1.149584e+000	1.160750e+000	9.653929e-001	1.033936e+000	1.129173e+000	6.368105e-001	1.283731e+000	1.189528e+000	9.521844e-001	8.383895e-001	7.317509e-001	8.176655e-001	1.247184e+000	1.291392e+000	7.381581e-001	9.839361e-001	9.975944e-001	1.211851e+000	6.289153e-001	9.801108e-001	1.001379e+000	1.120646e+000	7.227826e-001	1.001967e+000	1.003103e+000	9.217661e-001	1.314143e+000	7.763548e-001	1.156582e+000	1.023503e+000	8.316306e-001	9.876752e-001	9.725433e-001	9.331620e-001	9.391420e-001	9.020929e-001	9.997482e-001	1.002574e+000	1.057814e+000	9.528478e-001	9.857568e-001	1.008839e+000	7.800086e-001	9.870235e-001	7.412321e-001	1.024197e+000	1.105412e+000	6.726070e-001	6.405119e-001	1.046050e+000	1.029362e+000	1.113698e+000	1.050758e+000	1.086754e+000	7.026494e-001	6.762770e-001	7.082582e-001	7.885054e-001	9.762966e-001	7.858162e-001	1.017883e+000	7.560176e-001	8.536427e-001	1.066730e+000	1.121840e+000	1.033944e+000	8.186861e-001	1.195843e+000	1.139427e+000	1.130198e+000	1.102431e+000	1.199865e+000	1.240189e+000	1.336603e+000	1.330095e+000	1.130404e+000	1.203358e+000	9.758884e-001	1.152983e+000	1.137465e+000	6.573331e-001	9.500284e-001	1.109443e+000	1.000834e+000	6.125013e-001	1.129746e+000	1.331453e+000	9.342670e-001	6.602175e-001	1.002598e+000	6.882114e-001	1.001370e+000	1.000350e+000	9.571682e-001	9.988642e-001	9.961257e-001	1.000157e+000	1.081517e+000	1.009291e+000	1.041400e+000	1.095518e+000	8.593419e-001	9.972550e-001	9.996051e-001	1.144929e+000	9.364388e-001	9.394284e-001	9.417749e-001	1.105507e+000	9.537958e-001	9.458037e-001	7.095508e-001	1.036708e+000	9.951339e-001	9.959056e-001	8.452864e-001	9.050641e-001	9.529565e-001	9.621685e-001	1.060583e+000	1.079057e+000	9.911829e-001	9.944508e-001	8.891379e-001	8.739127e-001	9.559304e-001	9.589848e-001	1.015675e+000	9.954245e-001	1.183678e+000	7.110324e-001	7.720056e-001	8.068021e-001	7.959318e-001	7.674714e-001	7.591937e-001	7.330008e-001	7.284433e-001	7.515218e-001	1.320140e+000	1.268310e+000	8.684116e-001	1.096440e+000	6.379958e-001	6.432052e-001	6.459605e-001	6.486983e-001	1.076676e+000	1.057824e+000	1.041620e+000	6.516206e-001	6.544213e-001	6.631804e-001	1.040182e+000	1.043542e+000	8.285814e-001	8.404769e-001	6.974866e-001	6.926549e-001	7.484528e-001	7.640085e-001	7.719657e-001	9.963260e-001	9.903855e-001	9.892337e-001	9.945515e-001	1.004719e+000	1.037615e+000	1.018816e+000	1.013597e+000	1.001314e+000	9.985528e-001	9.930387e-001	9.916888e-001	9.887224e-001	9.885547e-001	9.969363e-001	9.989267e-001	6.342368e-001	6.366724e-001	8.359153e-001	6.383120e-001	7.141964e-001	7.206220e-001	7.273263e-001	7.342786e-001	9.830694e-001	8.853222e-001	9.048116e-001	1.003218e+000	1.003362e+000	9.442802e-001	9.470911e-001	1.151091e+000	9.271074e-001	7.976396e-001	8.073733e-001	6.800428e-001	6.840088e-001	6.661414e-001	6.692431e-001	1.042574e+000	1.042217e+000	9.654680e-001	9.689359e-001	1.058605e+000	1.294558e+000	7.444587e-001	1.311549e+000	9.380046e-001	7.450404e-001	1.001948e+000	9.505778e-001	1.001544e+000	1.107373e+000	1.099493e+000	1.058244e+000	1.148605e+000	1.115441e+000	1.149619e+000	1.163655e+000	1.143474e+000	1.185372e+000	1.128874e+000	1.301854e+000	9.285115e-001	1.001755e+000	1.120374e+000	6.350265e-001	1.163072e+000	1.228712e+000	9.867250e-001	1.276553e+000	9.900905e-001	1.152871e+000	1.002892e+000	1.203286e+000	7.256782e-001	1.003164e+000	9.832244e-001	1.128929e+000	1.177989e+000	1.082441e+000	6.453981e-001	1.048443e+000	9.899424e-001	1.122599e+000	6.478377e-001	6.986127e-001	6.810147e-001	7.566401e-001	8.413210e-001	1.157304e+000	1.292933e+000	1.227646e+000	9.983472e-001	1.269961e+000	1.039977e+000	9.454359e-001	1.324711e+000	8.392131e-001	9.369861e-001	1.105434e+000	1.067148e+000	1.009371e+000	9.977044e-001	9.877699e-001	1.091201e+000	1.052507e+000	1.031841e+000	1.027466e+000	6.850599e-001	6.937794e-001	7.149348e-001	7.987610e-001	9.760325e-001	9.796058e-001	7.939824e-001	1.031114e+000	7.641038e-001	1.073753e+000	1.130323e+000	1.106674e+000	1.190221e+000	1.253230e+000	1.319046e+000	1.082600e+000	1.176314e+000	1.168195e+000	1.055740e+000	1.110907e+000	6.193949e-001	9.352502e-001	6.642307e-001	1.003661e+000	1.003421e+000	1.002705e+000	1.002469e+000	9.811765e-001	9.630335e-001	1.002209e+000	1.001859e+000	1.014689e+000	1.025807e+000	1.099725e+000	9.985163e-001	1.000432e+000	1.135952e+000	9.400164e-001	9.424900e-001	9.522396e-001	9.404709e-001	1.060929e+000	1.003274e+000	1.007270e+000	8.670721e-001	8.528764e-001	9.535009e-001	9.564389e-001	1.071616e+000	1.086437e+000	9.932464e-001	9.960339e-001	9.122085e-001	8.963905e-001	8.813904e-001	9.594510e-001	9.625557e-001	1.040151e+000	1.019800e+000	1.000032e+000	7.150711e-001	7.370812e-001	8.417117e-001	8.267400e-001	8.152089e-001	8.042926e-001	7.842668e-001	7.752082e-001	7.397246e-001	7.337098e-001	7.667369e-001	8.838105e-001	6.501995e-001	6.529392e-001	1.065471e+000	6.555606e-001	6.584159e-001	6.611871e-001	6.673908e-001	1.040971e+000	8.541603e-001	8.682789e-001	7.036699e-001	7.092068e-001	7.721111e-001	7.810269e-001	7.899635e-001	9.913110e-001	1.038700e+000	1.035635e+000	1.022752e+000	1.018015e+000	1.013544e+000	1.005646e+000	1.002541e+000	9.999174e-001	9.958541e-001	9.941789e-001	9.926772e-001	9.905036e-001	9.906670e-001	9.901228e-001	1.000672e+000	6.408228e-001	6.430828e-001	9.598981e-001	7.247272e-001	6.248697e-001	7.210560e-001	7.273737e-001	7.343086e-001	7.415961e-001	7.492144e-001	9.012240e-001	9.212740e-001	1.002942e+000	1.003509e+000	1.003717e+000	9.449013e-001	9.476527e-001	9.440751e-001	9.694339e-001	8.081671e-001	8.184957e-001	8.295188e-001	6.893250e-001	6.707447e-001	6.740393e-001	6.773795e-001	1.045806e+000	1.044081e+000	1.042652e+000	9.657530e-001	9.690703e-001	9.724895e-001	7.588977e-001	7.516736e-001	1.291762e+000	9.355899e-001	1.122805e+000	1.086703e+000	9.537093e-001	1.280716e+000	1.150104e+000	1.007413e+000	1.009716e+000	1.082795e+000	1.108758e+000	6.562833e-001	1.273585e+000	1.041245e+000	1.215699e+000	1.058727e+000	1.115836e+000	1.210994e+000	1.003511e+000	1.178972e+000	1.166313e+000	1.179015e+000	1.002563e+000	8.485623e-001	1.126293e+000	9.483616e-001	9.521292e-001	9.375632e-001	7.535317e-001	1.094300e+000	6.409250e-001	1.053769e+000	1.049932e+000	9.985358e-001	7.740453e-001	7.115571e-001	1.111855e+000	8.675602e-001	1.004807e+000	1.137650e+000	1.101675e+000	1.134876e+000	1.066509e+000	1.147987e+000	9.858608e-001	1.237641e+000	9.890920e-001	9.921980e-001	1.170775e+000	1.120125e+000	1.193535e+000	1.009425e+000	6.530779e-001	6.959790e-001	1.248069e+000	1.073523e+000	9.927972e-001	1.030191e+000	6.916252e-001	7.009758e-001	7.059187e-001	9.790851e-001	9.825546e-001	1.079011e+000	1.107432e+000	1.143488e+000	1.258196e+000	1.301009e+000	1.104200e+000	1.053210e+000	1.102364e+000	6.304278e-001	1.004570e+000	1.004698e+000	1.004931e+000	1.005121e+000	9.864975e-001	9.690402e-001	1.005346e+000	1.005698e+000	1.006303e+000	1.029030e+000	1.040418e+000	9.994951e-001	1.001086e+000	1.127789e+000	9.402217e-001	9.431466e-001	9.473533e-001	9.389595e-001	1.013602e+000	1.019923e+000	8.757737e-001	8.612006e-001	9.568500e-001	1.079421e+000	1.091542e+000	9.947832e-001	9.976255e-001	9.196574e-001	9.044576e-001	8.901560e-001	9.596668e-001	9.628957e-001	1.063046e+000	1.043033e+000	1.023218e+000	1.004374e+000	7.320610e-001	7.371573e-001	7.951102e-001	8.988329e-001	8.367671e-001	8.252798e-001	8.142957e-001	8.037233e-001	7.939849e-001	7.402434e-001	7.476710e-001	7.846964e-001	6.582158e-001	1.071620e+000	1.064726e+000	6.610843e-001	6.635634e-001	6.665284e-001	6.693652e-001	6.727738e-001	8.826515e-001	8.992515e-001	7.171215e-001	7.234269e-001	7.819716e-001	7.906096e-001	8.003565e-001	8.101700e-001	1.040054e+000	1.037252e+000	1.033973e+000	1.026069e+000	1.021857e+000	1.017693e+000	1.013275e+000	1.006519e+000	1.003262e+000	1.000584e+000	9.964134e-001	9.948150e-001	9.930642e-001	9.915592e-001	9.902697e-001	9.889971e-001	9.881077e-001	6.512015e-001	6.477849e-001	9.965027e-001	8.650858e-001	6.734997e-001	6.303506e-001	7.294771e-001	7.361155e-001	7.425512e-001	7.499006e-001	7.575064e-001	7.656861e-001	9.168467e-001	9.364674e-001	1.003334e+000	1.004084e+000	1.004410e+000	9.457047e-001	9.478658e-001	9.509032e-001	9.592697e-001	9.842065e-001	1.011047e+000	8.198311e-001	8.301657e-001	8.418786e-001	8.542886e-001	6.761800e-001	6.800470e-001	6.837199e-001	6.873684e-001	1.042474e+000	1.046993e+000	1.044679e+000	9.658202e-001	9.691838e-001	9.723027e-001	9.757882e-001	7.762105e-001	7.679992e-001	7.605879e-001	1.163558e+000	1.118513e+000	1.063475e+000	1.160940e+000	1.184109e+000	9.921889e-001	9.432424e-001	1.203744e+000	1.083039e+000	1.241156e+000	1.102427e+000	8.603182e-001	7.937615e-001	1.078459e+000	1.169275e+000	1.255005e+000	1.304680e+000	1.305933e+000	1.294979e+000	1.255516e+000	1.129929e+000	7.039417e-001	1.074534e+000	1.112547e+000	1.019358e+000	1.002317e+000	9.486947e-001	1.109436e+000	1.041875e+000	1.050670e+000	6.530539e-001	6.599210e-001	1.015862e+000	9.975194e-001	6.650235e-001	9.549540e-001	6.977780e-001	1.103122e+000	9.591901e-001	1.151591e+000	1.089799e+000	1.301610e+000	1.173339e+000	1.164023e+000	1.014181e+000	1.083508e+000	1.270817e+000	1.049395e+000	1.222960e+000	1.058812e+000	1.197054e+000	1.161972e+000	1.167454e+000	1.143310e+000	7.540541e-001	7.628738e-001	1.096452e+000	6.358707e-001	1.054360e+000	1.104240e+000	9.864027e-001	1.227534e+000	7.076405e-001	7.146406e-001	7.188414e-001	9.800369e-001	1.108013e+000	1.138695e+000	1.280309e+000	1.123499e+000	1.005984e+000	1.006210e+000	1.007048e+000	1.007259e+000	9.753819e-001	9.923969e-001	1.008444e+000	1.008730e+000	1.010582e+000	1.012459e+000	1.041859e+000	1.052392e+000	9.994679e-001	1.119846e+000	9.393619e-001	9.419464e-001	9.453775e-001	9.404175e-001	1.025084e+000	1.032464e+000	8.842897e-001	8.694680e-001	1.085255e+000	1.095226e+000	9.964225e-001	9.274007e-001	9.120290e-001	9.010934e-001	9.610681e-001	1.064795e+000	1.045819e+000	1.026925e+000	1.009599e+000	7.512841e-001	7.467413e-001	7.760071e-001	8.470576e-001	9.183170e-001	8.463705e-001	8.371616e-001	8.235019e-001	8.152403e-001	8.030486e-001	1.076338e+000	1.069991e+000	1.064090e+000	6.661310e-001	6.698954e-001	6.716855e-001	6.756863e-001	6.778603e-001	8.972390e-001	9.144018e-001	7.266634e-001	7.313601e-001	7.996317e-001	8.110008e-001	8.221340e-001	1.038977e+000	1.035865e+000	1.032372e+000	1.028689e+000	1.024738e+000	1.020805e+000	1.016625e+000	1.011006e+000	1.006426e+000	1.001728e+000	9.934086e-001	9.881104e-001	9.931582e-001	8.518509e-001	6.447122e-001	7.397952e-001	7.446078e-001	7.533601e-001	7.582699e-001	7.677281e-001	7.758508e-001	7.845968e-001	9.325474e-001	9.515084e-001	1.004154e+000	1.004868e+000	1.005380e+000	9.453672e-001	9.493904e-001	9.729613e-001	9.974345e-001	1.022439e+000	8.327642e-001	8.434350e-001	8.551988e-001	8.690438e-001	8.828635e-001	6.824736e-001	6.851964e-001	6.903926e-001	6.948072e-001	1.047584e+000	1.044491e+000	9.672348e-001	9.735559e-001	7.957388e-001	7.847867e-001	7.784715e-001	7.688819e-001	1.156359e+000	1.144073e+000	1.192049e+000	1.270205e+000	1.171952e+000	1.080312e+000	1.098031e+000	1.209615e+000	1.063158e+000	1.132590e+000	1.097834e+000	1.261768e+000	1.100749e+000	1.174344e+000	7.081195e-001	1.160753e+000	1.107467e+000	1.184061e+000	1.156107e+000	1.071060e+000	9.531287e-001	1.091933e+000	7.686819e-001	1.029037e+000	1.020854e+000	9.713475e-001	9.504854e-001	8.638293e-001	1.237909e+000	9.461822e-001	9.828184e-001	9.670438e-001	8.168114e-001	1.079717e+000	1.042047e+000	1.233659e+000	1.081443e+000	1.061703e+000	1.155560e+000	1.085704e+000	1.302626e+000	1.251097e+000	1.105740e+000	9.943832e-001	6.702148e-001	6.738170e-001	1.104010e+000	1.161778e+000	1.121366e+000	1.282783e+000	1.167434e+000	1.083846e+000	1.224621e+000	1.208943e+000	6.463071e-001	1.119356e+000	1.058682e+000	1.054235e+000	6.633780e-001	7.188352e-001	7.311935e-001	9.895805e-001	1.133760e+000	1.159719e+000	1.138514e+000	1.007974e+000	1.009984e+000	9.980814e-001	1.012745e+000	1.016633e+000	1.052408e+000	1.113030e+000	9.411088e-001	1.036017e+000	1.043637e+000	8.863597e-001	1.089246e+000	9.979358e-001	1.000882e+000	9.289462e-001	9.092124e-001	9.589885e-001	1.066352e+000	1.047437e+000	1.029936e+000	1.016899e+000	7.706584e-001	8.397770e-001	9.268305e-001	8.407493e-001	8.192334e-001	1.073918e+000	1.068416e+000	6.795118e-001	6.860066e-001	9.286195e-001	7.447131e-001	8.338517e-001	1.004920e+000	1.035812e+000	1.028680e+000	1.021299e+000	1.014961e+000	1.009782e+000	1.000329e+000	9.961040e-001	9.892789e-001	9.872472e-001	1.008031e+000	9.732428e-001	7.422943e-001	6.478409e-001	7.589438e-001	7.733263e-001	7.873338e-001	7.936416e-001	8.050214e-001	9.477625e-001	9.662738e-001	1.003504e+000	1.005380e+000	1.006792e+000	9.428426e-001	9.477439e-001	9.858640e-001	1.008543e+000	1.032293e+000	1.056059e+000	8.465083e-001	8.576095e-001	8.693323e-001	8.832557e-001	8.999873e-001	9.105923e-001	6.934564e-001	7.014941e-001	1.050580e+000	1.047219e+000	9.651490e-001	9.775818e-001	9.837706e-001	8.000510e-001	7.824463e-001	1.109263e+000	1.156836e+000	1.152061e+000	1.127659e+000	1.042388e+000	1.099134e+000	1.157677e+000	1.127440e+000	1.195704e+000	1.149120e+000	1.139068e+000	1.118957e+000	1.128944e+000	1.214361e+000	1.243556e+000	1.071615e+000	9.962501e-001	7.152088e-001	1.116784e+000	1.018923e+000	1.115585e+000	9.342305e-001	1.106500e+000	1.180899e+000	9.371503e-001	1.038435e+000	9.754833e-001	9.573260e-001	1.076654e+000	1.084504e+000	1.099010e+000	1.084111e+000	1.155677e+000	1.087650e+000	1.093122e+000	1.062179e+000	7.374582e-001	6.473686e-001	9.871817e-001	1.003323e+000	1.139960e+000	1.145180e+000	1.282893e+000	1.068595e+000	1.066631e+000	1.167098e+000	1.092207e+000	1.193832e+000	1.164932e+000	9.514540e-001	1.232779e+000	9.915812e-001	9.734779e-001	1.082166e+000	1.249634e+000	1.060611e+000	1.099502e+000	9.922390e-001	1.262818e+000	1.167093e+000	1.020435e+000	1.221416e+000	1.209215e+000	6.