# vtk DataFile Version 3.0
vtk output
ASCII
DATASET UNSTRUCTURED_GRID
POINTS 5233 float
9.997500e-001	-3.633356e-005	0.0	9.990000e-001	-1.455434e-004	0.0	9.977600e-001	-3.282848e-004	0.0	9.960200e-001	-5.941034e-004	0.0	9.937800e-001	-9.620649e-004	0.0	9.910500e-001	-1.462991e-003	0.0	9.878400e-001	-2.136933e-003	0.0	9.841300e-001	-3.028713e-003	0.0	9.799500e-001	-4.151566e-003	0.0	9.752800e-001	-5.493409e-003	0.0	9.701500e-001	-6.983722e-003	0.0	9.645400e-001	-8.531795e-003	0.0	9.584700e-001	-1.002642e-002	0.0	9.519400e-001	-1.138297e-002	0.0	9.449600e-001	-1.255664e-002	0.0	9.375400e-001	-1.354925e-002	0.0	9.296900e-001	-1.439677e-002	0.0	9.214000e-001	-1.515101e-002	0.0	9.127000e-001	-1.585639e-002	0.0	9.035800e-001	-1.654765e-002	0.0	8.940600e-001	-1.724258e-002	0.0	8.841500e-001	-1.794981e-002	0.0	8.738500e-001	-1.867478e-002	0.0	8.631800e-001	-1.942261e-002	0.0	8.521600e-001	-2.020202e-002	0.0	8.407700e-001	-2.102832e-002	0.0	8.290500e-001	-2.191490e-002	0.0	8.170100e-001	-2.287748e-002	0.0	8.046400e-001	-2.393174e-002	0.0	7.919700e-001	-2.508682e-002	0.0	7.790100e-001	-2.634908e-002	0.0	7.657800e-001	-2.771913e-002	0.0	7.522800e-001	-2.919497e-002	0.0	7.385200e-001	-3.076950e-002	0.0	7.245300e-001	-3.242966e-002	0.0	7.103200e-001	-3.416178e-002	0.0	6.958900e-001	-3.595153e-002	0.0	6.812700e-001	-3.777968e-002	0.0	6.664700e-001	-3.962887e-002	0.0	6.515000e-001	-4.148177e-002	0.0	6.363800e-001	-4.332027e-002	0.0	6.211300e-001	-4.512715e-002	0.0	6.057600e-001	-4.688741e-002	0.0	5.902800e-001	-4.858719e-002	0.0	5.747100e-001	-5.021280e-002	0.0	5.590600e-001	-5.175295e-002	0.0	5.433600e-001	-5.319574e-002	0.0	5.276100e-001	-5.453351e-002	0.0	5.118400e-001	-5.575724e-002	0.0	4.960500e-001	-5.686160e-002	0.0	4.802700e-001	-5.784033e-002	0.0	4.645100e-001	-5.868980e-002	0.0	4.487800e-001	-5.940743e-002	0.0	4.331100e-001	-5.999088e-002	0.0	4.175000e-001	-6.044013e-002	0.0	4.019700e-001	-6.075535e-002	0.0	3.865400e-001	-6.093780e-002	0.0	3.712300e-001	-6.098981e-002	0.0	3.560400e-001	-6.091447e-002	0.0	3.409900e-001	-6.071545e-002	0.0	3.261100e-001	-6.039745e-002	0.0	3.114000e-001	-5.996520e-002	0.0	2.968700e-001	-5.942375e-002	0.0	2.825500e-001	-5.877931e-002	0.0	2.684500e-001	-5.803762e-002	0.0	2.545700e-001	-5.720376e-002	0.0	2.409400e-001	-5.628447e-002	0.0	2.275700e-001	-5.528532e-002	0.0	2.144700e-001	-5.421155e-002	0.0	2.016600e-001	-5.306897e-002	0.0	1.891400e-001	-5.186128e-002	0.0	1.769300e-001	-5.059356e-002	0.0	1.650400e-001	-4.926960e-002	0.0	1.534900e-001	-4.789396e-002	0.0	1.422900e-001	-4.646974e-002	0.0	1.314400e-001	-4.499829e-002	0.0	1.209500e-001	-4.348169e-002	0.0	1.108500e-001	-4.192491e-002	0.0	1.011300e-001	-4.032670e-002	0.0	9.181000e-002	-3.869023e-002	0.0	8.290000e-002	-3.701712e-002	0.0	7.440000e-002	-3.530691e-002	0.0	6.633000e-002	-3.356314e-002	0.0	5.869000e-002	-3.178532e-002	0.0	5.149000e-002	-2.997512e-002	0.0	4.474000e-002	-2.813452e-002	0.0	3.844000e-002	-2.626283e-002	0.0	3.260000e-002	-2.436212e-002	0.0	2.723000e-002	-2.243500e-002	0.0	2.232000e-002	-2.047634e-002	0.0	1.790000e-002	-1.849686e-002	0.0	1.395000e-002	-1.648572e-002	0.0	1.049000e-002	-1.444974e-002	0.0	7.520000e-003	-1.238572e-002	0.0	5.040000e-003	-1.028790e-002	0.0	3.050000e-003	-8.146009e-003	0.0	1.560000e-003	-5.957846e-003	0.0	5.600000e-004	-3.681077e-003	0.0	6.000000e-005	-1.267540e-003	0.0	0.000000e+000	0.000000e+000	0.0	6.000000e-005	1.305227e-003	0.0	5.600000e-004	3.869146e-003	0.0	1.560000e-003	6.338788e-003	0.0	3.050000e-003	8.735386e-003	0.0	5.040000e-003	1.108783e-002	0.0	7.520000e-003	1.338708e-002	0.0	1.049000e-002	1.563665e-002	0.0	1.395000e-002	1.783764e-002	0.0	1.790000e-002	1.999024e-002	0.0	2.232000e-002	2.208553e-002	0.0	2.723000e-002	2.413445e-002	0.0	3.260000e-002	2.612614e-002	0.0	3.844000e-002	2.806701e-002	0.0	4.474000e-002	2.995592e-002	0.0	5.149000e-002	3.179259e-002	0.0	5.869000e-002	3.357970e-002	0.0	6.633000e-002	3.531730e-002	0.0	7.440000e-002	3.700571e-002	0.0	8.290000e-002	3.864719e-002	0.0	9.181000e-002	4.023994e-002	0.0	1.011300e-001	4.178575e-002	0.0	1.108500e-001	4.328416e-002	0.0	1.209500e-001	4.473300e-002	0.0	1.314400e-001	4.613398e-002	0.0	1.422900e-001	4.748282e-002	0.0	1.534900e-001	4.877770e-002	0.0	1.650400e-001	5.001737e-002	0.0	1.769300e-001	5.119886e-002	0.0	1.891400e-001	5.231788e-002	0.0	2.016600e-001	5.337091e-002	0.0	2.144700e-001	5.435338e-002	0.0	2.275700e-001	5.526210e-002	0.0	2.409400e-001	5.609229e-002	0.0	2.545700e-001	5.683989e-002	0.0	2.684500e-001	5.750094e-002	0.0	2.825500e-001	5.807084e-002	0.0	2.968700e-001	5.854674e-002	0.0	3.114000e-001	5.892557e-002	0.0	3.261100e-001	5.920440e-002	0.0	3.409900e-001	5.938150e-002	0.0	3.560400e-001	5.945567e-002	0.0	3.712300e-001	5.942619e-002	0.0	3.865400e-001	5.929338e-002	0.0	4.019700e-001	5.905804e-002	0.0	4.175000e-001	5.872187e-002	0.0	4.331100e-001	5.828739e-002	0.0	4.487800e-001	5.775802e-002	0.0	4.645100e-001	5.713711e-002	0.0	4.802700e-001	5.642979e-002	0.0	4.960500e-001	5.564110e-002	0.0	5.118400e-001	5.477659e-002	0.0	5.276100e-001	5.384354e-002	0.0	5.433600e-001	5.284804e-002	0.0	5.590600e-001	5.179850e-002	0.0	5.747100e-001	5.070180e-002	0.0	5.902800e-001	4.956721e-002	0.0	6.057600e-001	4.840286e-002	0.0	6.211300e-001	4.721771e-002	0.0	6.363800e-001	4.601990e-002	0.0	6.515000e-001	4.481732e-002	0.0	6.664700e-001	4.361813e-002	0.0	6.812700e-001	4.242976e-002	0.0	6.958900e-001	4.125774e-002	0.0	7.103200e-001	4.010611e-002	0.0	7.245300e-001	3.897865e-002	0.0	7.385200e-001	3.787445e-002	0.0	7.522800e-001	3.679076e-002	0.0	7.657800e-001	3.572349e-002	0.0	7.790100e-001	3.466388e-002	0.0	7.919700e-001	3.359947e-002	0.0	8.046400e-001	3.251680e-002	0.0	8.170100e-001	3.139972e-002	0.0	8.290500e-001	3.023332e-002	0.0	8.407700e-001	2.899963e-002	0.0	8.521600e-001	2.768474e-002	0.0	8.631800e-001	2.628291e-002	0.0	8.738500e-001	2.478726e-002	0.0	8.841500e-001	2.320317e-002	0.0	8.940600e-001	2.154460e-002	0.0	9.035800e-001	1.982957e-002	0.0	9.127000e-001	1.808272e-002	0.0	9.214000e-001	1.633256e-002	0.0	9.296900e-001	1.459968e-002	0.0	9.375400e-001	1.290840e-002	0.0	9.449600e-001	1.126978e-002	0.0	9.519400e-001	9.696580e-003	0.0	9.584700e-001	8.202934e-003	0.0	9.645400e-001	6.807180e-003	0.0	9.701500e-001	5.529234e-003	0.0	9.752800e-001	4.393187e-003	0.0	9.799500e-001	3.407997e-003	0.0	9.841300e-001	2.582413e-003	0.0	9.878400e-001	1.903213e-003	0.0	9.910500e-001	1.358229e-003	0.0	9.937800e-001	9.236618e-004	0.0	9.960200e-001	5.833798e-004	0.0	9.977600e-001	3.262873e-004	0.0	9.990000e-001	1.453607e-004	0.0	9.997500e-001	3.633066e-005	0.0	1.000000e+000	0.000000e+000	0.0	1.984229e+001	2.506660e+000	0.0	1.937166e+001	4.973800e+000	0.0	1.859553e+001	7.362490e+000	0.0	1.752613e+001	9.635070e+000	0.0	1.618034e+001	1.175571e+001	0.0	1.457937e+001	1.369094e+001	0.0	1.274848e+001	1.541027e+001	0.0	1.071654e+001	1.688656e+001	0.0	8.515590e+000	1.809654e+001	0.0	6.180340e+000	1.902113e+001	0.0	3.747630e+000	1.964575e+001	0.0	1.255810e+000	1.996053e+001	0.0	-1.255810e+000	1.996053e+001	0.0	-3.747630e+000	1.964574e+001	0.0	-6.180340e+000	1.902113e+001	0.0	-8.515590e+000	1.809654e+001	0.0	-1.071654e+001	1.688656e+001	0.0	-1.274848e+001	1.541026e+001	0.0	-1.457937e+001	1.369094e+001	0.0	-1.618034e+001	1.175570e+001	0.0	-1.752613e+001	9.635070e+000	0.0	-1.859553e+001	7.362490e+000	0.0	-1.937166e+001	4.973800e+000	0.0	-1.984229e+001	2.506660e+000	0.0	-2.000000e+001	0.000000e+000	0.0	-1.984229e+001	-2.506670e+000	0.0	-1.937166e+001	-4.973800e+000	0.0	-1.859553e+001	-7.362490e+000	0.0	-1.752613e+001	-9.635080e+000	0.0	-1.618034e+001	-1.175571e+001	0.0	-1.457937e+001	-1.369094e+001	0.0	-1.274848e+001	-1.541027e+001	0.0	-1.071653e+001	-1.688656e+001	0.0	-8.515580e+000	-1.809654e+001	0.0	-6.180340e+000	-1.902113e+001	0.0	-3.747620e+000	-1.964575e+001	0.0	-1.255810e+000	-1.996053e+001	0.0	1.255810e+000	-1.996053e+001	0.0	3.747630e+000	-1.964574e+001	0.0	6.180340e+000	-1.902113e+001	0.0	8.515590e+000	-1.809654e+001	0.0	1.071654e+001	-1.688656e+001	0.0	1.274848e+001	-1.541026e+001	0.0	1.457937e+001	-1.369094e+001	0.0	1.618034e+001	-1.175570e+001	0.0	1.752614e+001	-9.635070e+000	0.0	1.859553e+001	-7.362490e+000	0.0	1.937166e+001	-4.973790e+000	0.0	1.984229e+001	-2.506660e+000	0.0	2.000000e+001	0.000000e+000	0.0	6.093344e-002	-3.975490e-002	0.0	6.603799e-001	-5.430970e-002	0.0	4.257236e-001	7.270490e-002	0.0	6.897452e-001	5.534613e-002	0.0	3.790647e-001	-7.478660e-002	0.0	9.994591e-001	-7.471204e-004	0.0	9.985355e-001	-1.357486e-003	0.0	7.736296e-001	-3.947388e-002	0.0	6.899745e-001	-5.038590e-002	0.0	-1.203653e-003	5.988882e-003	0.0	7.466961e-001	-4.286142e-002	0.0	5.834918e-001	6.442091e-002	0.0	9.927836e-001	-3.797293e-003	0.0	9.899047e-001	-4.838900e-003	0.0	5.990463e-001	6.320354e-002	0.0	7.187833e-001	-4.652574e-002	0.0	-1.433820e-003	7.402814e-004	0.0	9.865447e-001	-6.056144e-003	0.0	9.827091e-001	-7.453093e-003	0.0	-1.160531e-003	-5.682094e-003	0.0	6.453256e-001	-5.625423e-002	0.0	8.241553e-001	-3.370599e-002	0.0	7.994733e-001	-3.643454e-002	0.0	3.485382e-001	7.310912e-002	0.0	8.475497e-001	-3.123921e-002	0.0	2.472147e-001	6.893177e-002	0.0	8.695942e-001	-2.892391e-002	0.0	1.016914e-002	1.988174e-002	0.0	8.901807e-001	-2.667317e-002	0.0	7.716206e-002	-4.403007e-002	0.0	9.092321e-001	-2.441505e-002	0.0	-1.716531e-003	-2.823192e-003	0.0	9.423666e-001	-1.936014e-002	0.0	9.266593e-001	-2.204200e-002	0.0	1.823583e-002	-2.360384e-002	0.0	4.257687e-001	-7.427302e-002	0.0	8.587498e-001	-3.006640e-002	0.0	9.562776e-001	-1.618125e-002	0.0	9.783882e-001	-9.047177e-003	0.0	9.683040e-001	-1.258334e-002	0.0	1.581720e-001	-5.919610e-002	0.0	8.999057e-001	-2.555035e-002	0.0	7.602946e-001	-4.112746e-002	0.0	9.971087e-001	-2.120588e-003	0.0	5.993140e-001	-6.182055e-002	0.0	4.415004e-001	-7.381216e-002	0.0	5.365429e-001	-6.809375e-002	0.0	4.731307e-001	-7.245912e-002	0.0	5.048492e-001	-7.054406e-002	0.0	4.889782e-001	-7.157000e-002	0.0	1.249438e-001	-5.389866e-002	0.0	2.812294e-002	-2.840949e-002	0.0	3.945384e-001	-7.476020e-002	0.0	4.645416e-002	-3.533
[...]
POINT_DATA 5233

SCALARS Density float 1
LOOKUP_TABLE default
1.207427e+000	1.189213e+000	1.180167e+000	1.174630e+000	1.170619e+000	1.166070e+000	1.158086e+000	1.144637e+000	1.123975e+000	1.095797e+000	1.061248e+000	1.022809e+000	9.869139e-001	9.626271e-001	9.537089e-001	9.571434e-001	9.671641e-001	9.787678e-001	9.890250e-001	9.970127e-001	1.003102e+000	1.008039e+000	1.012452e+000	1.016626e+000	1.020593e+000	1.024138e+000	1.027009e+000	1.028922e+000	1.029701e+000	1.029224e+000	1.027433e+000	1.024340e+000	1.019994e+000	1.014476e+000	1.007931e+000	1.000433e+000	9.921639e-001	9.831858e-001	9.736428e-001	9.636671e-001	9.536087e-001	9.436366e-001	9.331146e-001	9.216742e-001	9.121574e-001	9.097382e-001	9.125498e-001	9.019038e-001	8.516154e-001	7.798126e-001	7.432921e-001	7.440120e-001	7.556413e-001	7.661408e-001	7.738330e-001	7.806506e-001	7.878569e-001	7.955928e-001	8.036789e-001	8.119227e-001	8.202348e-001	8.285592e-001	8.368425e-001	8.450593e-001	8.531473e-001	8.610647e-001	8.688105e-001	8.763861e-001	8.837838e-001	8.909904e-001	8.979937e-001	9.047988e-001	9.114532e-001	9.180262e-001	9.245916e-001	9.311500e-001	9.377485e-001	9.444698e-001	9.513974e-001	9.585830e-001	9.661483e-001	9.741700e-001	9.827689e-001	9.920519e-001	1.002158e+000	1.013281e+000	1.025592e+000	1.039354e+000	1.054942e+000	1.072679e+000	1.093161e+000	1.117154e+000	1.145329e+000	1.178755e+000	1.217819e+000	1.261368e+000	1.304152e+000	1.343404e+000	1.350708e+000	1.338728e+000	1.329024e+000	1.289398e+000	1.209673e+000	1.140005e+000	1.075645e+000	1.019676e+000	9.735250e-001	9.362640e-001	9.060085e-001	8.813821e-001	8.611954e-001	8.444825e-001	8.307375e-001	8.193329e-001	8.099144e-001	8.022617e-001	7.959342e-001	7.904818e-001	7.856476e-001	7.812856e-001	7.774416e-001	7.741427e-001	7.711844e-001	7.681687e-001	7.648545e-001	7.613275e-001	7.577708e-001	7.540787e-001	7.500669e-001	7.456741e-001	7.410540e-001	7.363147e-001	7.314872e-001	7.264862e-001	7.212781e-001	7.158123e-001	7.101020e-001	7.041904e-001	6.980855e-001	6.919367e-001	6.859149e-001	6.801851e-001	6.747167e-001	6.693474e-001	6.639690e-001	6.587097e-001	6.536979e-001	6.491684e-001	6.451310e-001	6.417106e-001	6.387550e-001	6.360757e-001	6.336731e-001	6.317493e-001	6.313715e-001	6.328084e-001	6.327444e-001	6.279956e-001	6.269597e-001	7.222526e-001	9.183549e-001	9.989848e-001	9.933280e-001	9.822363e-001	9.805680e-001	9.791460e-001	9.758155e-001	9.719766e-001	9.680864e-001	9.640155e-001	9.598562e-001	9.559590e-001	9.527740e-001	9.509069e-001	9.509114e-001	9.533547e-001	9.585506e-001	9.665163e-001	9.768641e-001	9.889674e-001	1.002022e+000	1.015322e+000	1.028404e+000	1.041122e+000	1.053602e+000	1.066103e+000	1.078792e+000	1.091531e+000	1.103866e+000	1.115185e+000	1.124937e+000	1.132932e+000	1.139326e+000	1.144788e+000	1.149990e+000	1.156317e+000	1.164290e+000	1.175579e+000	1.189425e+000	1.183107e+000	9.992759e-001	9.997312e-001	9.997279e-001	9.995986e-001	9.994904e-001	9.993587e-001	9.992032e-001	9.990106e-001	9.988030e-001	9.986570e-001	9.985758e-001	9.986467e-001	9.988339e-001	9.991969e-001	9.995042e-001	9.997600e-001	9.999094e-001	1.000008e+000	1.000075e+000	1.000109e+000	1.000132e+000	1.000144e+000	1.000155e+000	1.000166e+000	1.000174e+000	1.000186e+000	1.000204e+000	1.000227e+000	1.000259e+000	1.000308e+000	1.000363e+000	1.000455e+000	1.000546e+000	1.000703e+000	1.000855e+000	1.001047e+000	1.001256e+000	1.001352e+000	1.001392e+000	1.001298e+000	1.001187e+000	1.001016e+000	1.000856e+000	1.000698e+000	1.000553e+000	1.000387e+000	1.000260e+000	1.000233e+000	9.996703e-001	9.989524e-001	9.972463e-001	9.697307e-001	6.668956e-001	9.984149e-001	7.984861e-001	1.189862e+000	1.181690e+000	1.023326e+000	9.876216e-001	1.270199e+000	1.015224e+000	6.337612e-001	1.160988e+000	1.153490e+000	6.348384e-001	1.003052e+000	1.334018e+000	1.142802e+000	1.127459e+000	1.325720e+000	9.602801e-001	1.025945e+000	1.026879e+000	6.951652e-001	1.021359e+000	7.353175e-001	1.014636e+000	9.992192e-001	1.006651e+000	9.785188e-001	9.957986e-001	1.344650e+000	9.690353e-001	9.801019e-001	1.102609e+000	7.773726e-001	1.018163e+000	9.908399e-001	1.106632e+000	1.050096e+000	9.201801e-001	1.001780e+000	1.019815e+000	1.173077e+000	9.305432e-001	7.690600e-001	9.201501e-001	7.471188e-001	8.152687e-001	7.565046e-001	9.405454e-001	1.063075e+000	7.910549e-001	1.019479e+000	7.841488e-001	8.306141e-001	8.143375e-001	1.046824e+000	8.468437e-001	9.725016e-001	9.269022e-001	8.997392e-001	9.701340e-001	9.547108e-001	9.141823e-001	9.134563e-001	9.413431e-001	1.010827e+000	1.081516e+000	1.167005e+000	1.186635e+000	9.291784e-001	9.884464e-001	9.741107e-001	1.080505e+000	1.212765e+000	1.024015e+000	8.704076e-001	9.178931e-001	1.009583e+000	1.025684e+000	9.475261e-001	8.853747e-001	9.197120e-001	9.789414e-001	1.007844e+000	1.222164e+000	1.126834e+000	8.063043e-001	9.066727e-001	1.217731e+000	8.779656e-001	9.622300e-001	8.387552e-001	8.627013e-001	7.571486e-001	9.956748e-001	1.316849e+000	1.296779e+000	6.383514e-001	1.340643e+000	8.803748e-001	8.227447e-001	8.463225e-001	7.810086e-001	6.723706e-001	1.158258e+000	6.412066e-001	6.519032e-001	1.107093e+000	1.084845e+000	9.783727e-001	6.479005e-001	6.615466e-001	6.834579e-001	1.025226e+000	1.000663e+000	8.000245e-001	1.116762e+000	1.073040e+000	1.049313e+000	7.891898e-001	8.139141e-001	7.193591e-001	7.302391e-001	7.625387e-001	7.075149e-001	6.565300e-001	6.779043e-001	7.701812e-001	7.775107e-001	6.249495e-001	7.542825e-001	7.450218e-001	8.282774e-001	6.338552e-001	9.784926e-001	9.812276e-001	9.649930e-001	9.717795e-001	9.570818e-001	9.590213e-001	9.889496e-001	9.629880e-001	1.061174e+000	1.012911e+000	1.096339e+000	9.588761e-001	9.695673e-001	9.617441e-001	9.573083e-001	9.751274e-001	9.684132e-001	9.843734e-001	9.808882e-001	6.402312e-001	9.987476e-001	6.357675e-001	6.307825e-001	7.497398e-001	7.402390e-001	7.663754e-001	7.585691e-001	8.334069e-001	7.739532e-001	9.610609e-001	8.618438e-001	8.926415e-001	1.096186e+000	1.018110e+000	1.026943e+000	8.224663e-001	8.908122e-001	1.153940e+000	9.025445e-001	1.044156e+000	7.942855e-001	8.064696e-001	7.249202e-001	7.847952e-001	1.125136e+000	1.132268e+000	7.135460e-001	1.138531e+000	1.144472e+000	7.013635e-001	6.891834e-001	1.037367e+000	1.199711e+000	1.168029e+000	1.177948e+000	9.509058e-001	1.032396e+000	1.150839e+000	6.443526e-001	1.260242e+000	1.154793e+000	9.875132e-001	9.336968e-001	8.548407e-001	8.180353e-001	1.247274e+000	1.292603e+000	8.571540e-001	9.911979e-001	9.960559e-001	1.183457e+000	6.377082e-001	9.834115e-001	1.021845e+000	1.139896e+000	8.334398e-001	1.018976e+000	1.023123e+000	9.741218e-001	1.303895e+000	8.947464e-001	1.129508e+000	1.018326e+000	9.295668e-001	9.983856e-001	9.662940e-001	7.716278e-001	9.827901e-001	8.023929e-001	1.005757e+000	1.023608e+000	1.054903e+000	9.474590e-001	9.522967e-001	9.634122e-001	7.932051e-001	1.000011e+000	7.721715e-001	9.738422e-001	1.131382e+000	7.053654e-001	6.478820e-001	1.067638e+000	9.812441e-001	1.137619e+000	1.078535e+000	1.117057e+000	7.449337e-001	7.115602e-001	7.498243e-001	7.981271e-001	9.750846e-001	9.019180e-001	1.014179e+000	7.802859e-001	8.483461e-001	1.099245e+000	1.143851e+000	9.903208e-001	9.227036e-001	1.210874e+000	1.158367e+000	1.150590e+000	1.100253e+000	1.199200e+000	1.214083e+000	1.335844e+000	1.331554e+000	1.106621e+000	1.218343e+000	1.001997e+000	1.171324e+000	1.157106e+000	6.761930e-001	9.213557e-001	1.127369e+000	1.013077e+000	6.368921e-001	1.149538e+000	1.326919e+000	7.812232e-001	6.818648e-001	1.021356e+000	7.292173e-001	1.016205e+000	1.009650e+000	9.920330e-001	1.001260e+000	9.904572e-001	9.870395e-001	1.068333e+000	9.987096e-001	1.042744e+000	1.111045e+000	9.435891e-001	1.015213e+000	1.019037e+000	1.164036e+000	7.598092e-001	7.594920e-001	7.941567e-001	1.086441e+000	7.953653e-001	7.886063e-001	8.255018e-001	1.037753e+000	9.855437e-001	9.834311e-001	9.364979e-001	9.659624e-001	9.184451e-001	9.393329e-001	1.067817e+000	1.091036e+000	1.004791e+000	1.010491e+000	9.582455e-001	9.507981e-001	9.208600e-001	9.293108e-001	1.024731e+000	1.012879e+000	1.154990e+000	8.176366e-001	8.098874e-001	9.158828e-001	9.089540e-001	8.874745e-001	8.800823e-001	8.492972e-001	8.413765e-001	8.725707e-001	1.321938e+000	1.246479e+000	8.622394e-001	1.124640e+000	6.443807e-001	6.517063e-001	6.559546e-001	6.604200e-001	1.108614e+000	1.089159e+000	1.022874e+000	6.654215e-001	6.706555e-001	6.876845e-001	1.011573e+000	1.056585e+000	8.265855e-001	8.365742e-001	7.399091e-001	7.346520e-001	7.761956e-001	7.845838e-001	7.888354e-001	9.696000e-001	9.809186e-001	9.828696e-001	9.722849e-001	9.635671e-001	1.000572e+000	9.683532e-001	9.649576e-001	9.648919e-001	9.670506e-001	9.749693e-001	9.777963e-001	9.822968e-001	9.868274e-001	7.133072e-001	6.285057e-001	6.390130e-001	6.412914e-001	6.214520e-001	6.355683e-001	7.545222e-001	7.591742e-001	7.636864e-001	7.680680e-001	9.785128e-001	8.787709e-001	8.983197e-001	1.024381e+000	1.024190e+000	8.647582e-001	9.123787e-001	1.149643e+000	9.210320e-001	8.038843e-001	8.105110e-001	7.176156e-001	7.235189e-001	6.934864e-001	6.993564e-001	1.045452e+000	1.034200e+000	9.485063e-001	9.573944e-001	1.052181e+000	1.278031e+000	8.649206e-001	1.304386e+000	8.071892e-001	8.601156e-001	1.020271e+000	9.208774e-001	9.987710e-001	1.130521e+000	1.124156e+000	1.083112e+000	1.146150e+000	1.137083e+000	1.167424e+000	1.179954e+000	1.161464e+000	1.200865e+000	1.109537e+000	1.301394e+000	9.782901e-001	9.959007e-001	1.138200e+000	6.435131e-001	1.180729e+000	1.206283e+000	9.942569e-001	1.260750e+000	1.000539e+000	1.130652e+000	1.014830e+000	1.179412e+000	8.369838e-001	1.017224e+000	9.874070e-001	1.147141e+000	1.154177e+000	1.109694e+000	6.519768e-001	1.063169e+000	8.609326e-001	1.142873e+000	6.561866e-001	7.395766e-001	7.161269e-001	7.830136e-001	8.393404e-001	1.174269e+000	1.281329e+000	1.226281e+000	9.934128e-001	1.269136e+000	1.040499e+000	9.871115e-001	1.324447e+000	9.325221e-001	7.753976e-001	1.090277e+000	1.063501e+000	9.694271e-001	9.736252e-001	9.973405e-001	1.117320e+000	1.073263e+000	9.924394e-001	9.845779e-001	7.222267e-001	7.339617e-001	7.551728e-001	8.076914e-001	9.719635e-001	9.798716e-001	9.045120e-001	1.026839e+000	7.872066e-001	1.101487e+000	1.149606e+000	1.103631e+000	1.188339e+000	1.233743e+000	1.315736e+000	1.072655e+000	1.192598e+000	1.185087e+000	1.061022e+000	1.127789e+000	6.417430e-001	7.853696e-001	6.862942e-001	1.020820e+000	1.019215e+000	1.012202e+000	1.009202e+000	1.006679e+000	9.965702e-001	1.005954e+000	1.002385e+000	1.006977e+000	1.021587e+000	1.114981e+000	1.014987e+000	1.017987e+000	1.154037e+000	7.684535e-001	7.841082e-001	8.003711e-001	7.935323e-001	1.056935e+000	9.950669e-001	9.982341e-001	9.468277e-001	9.395858e-001	9.227206e-001	9.231015e-001	1.081041e+000	1.099199e+000	1.006133e+000	1.010887e+000	9.699257e-001	9.618874e-001	9.542630e-001	9.289654e-001	9.380040e-001	1.042803e+000	1.029721e+000	1.017651e+000	8.293105e-001	8.216677e-001	8.142363e-001	9.256373e-001	9.186557e-001	9.116312e-001	8.973578e-001	8.901013e-001	8.524234e-001	8.447044e-001	8.827635e-001	8.779172e-001	6.603755e-001	6.650884e-001	1.092558e+000	6.699149e-001	6.751539e-001	6.805470e-001	6.922163e-001	1.021492e+000	8.504208e-001	8.632295e-001	7.449184e-001	7.501771e-001	7.917169e-001	7.969425e-001	8.022898e-001	9.841258e-001	1.011248e+000	1.001419e+000	9.782503e-001	9.735786e-001	9.707964e-001	9.693175e-001	9.702633e-001	9.717499e-001	9.757524e-001	9.780106e-001	9.809905e-001	9.847413e-001	9.842712e-001	9.967117e-001	6.575223e-001	6.458594e-001	6.486258e-001	6.184432e-001	6.310272e-001	6.371736e-001	7.600460e-001	7.646758e-001	7.693636e-001	7.740131e-001	7.786671e-001	8.949339e-001	9.149612e-001	1.021565e+000	1.022065e+000	1.021791e+000	8.384003e-001	8.967788e-001	9.380361e-001	9.638810e-001	8.138918e-001	8.212959e-001	8.297346e-001	7.282115e-001	6.983684e-001	7.043727e-001	7.102307e-001	1.052899e+000	1.042482e+000	1.031960e+000	9.467811e-001	9.552928e-001	9.636323e-001	8.752982e-001	8.677485e-001	1.282554e+000	9.823657e-001	1.141991e+000	1.110253e+000	9.259919e-001	1.278197e+000	1.167673e+000	1.004426e+000	1.004918e+000	1.075698e+000	1.129630e+000	6.663000e-001	1.261076e+000	1.036634e+000	1.196283e+000	1.077822e+000	1.135798e+000	1.208334e+000	7.491658e-001	1.176037e+000	1.182374e+000	1.195320e+000	1.019030e+000	9.361846e-001	1.110864e+000	8.133074e-001	9.914241e-001	7.914774e-001	8.640833e-001	1.117140e+000	6.517141e-001	1.068662e+000	1.059292e+000	9.768986e-001	7.954562e-001	7.511419e-001	1.127809e+000	8.640101e-001	1.016038e+000	1.155996e+000	1.123587e+000	1.152158e+000	1.074102e+000	1.129977e+000	9.908520e-001	1.219932e+000	9.967237e-001	1.002519e+000	1.151149e+000	1.136824e+000	1.173463e+000	9.739382e-001	6.606928e-001	7.340049e-001	1.245657e+000	1.069381e+000	9.490517e-001	9.955709e-001	7.282074e-001	7.399660e-001	7.455112e-001	9.770628e-001	9.841311e-001	1.102817e+000	1.103734e+000	1.140203e+000	1.242847e+000	1.295065e+000	1.092534e+000	1.057438e+000	1.117070e+000	6.478605e-001	1.018900e+000	1.017713e+000	1.014190e+000	1.012113e+000	1.011022e+000	1.000894e+000	1.009905e+000	1.007665e+000	1.005703e+000	1.026425e+000	1.041076e+000	1.014598e+000	1.016676e+000	1.144918e+000	7.842113e-001	7.898745e-001	8.063107e-001	7.993828e-001	1.008027e+000	1.015069e+000	9.504686e-001	9.429143e-001	9.286707e-001	1.089937e+000	1.104451e+000	1.006731e+000	1.011488e+000	9.738782e-001	9.658041e-001	9.581069e-001	9.302318e-001	9.374883e-001	1.061053e+000	1.047001e+000	1.033799e+000	1.021859e+000	8.416967e-001	8.342908e-001	8.271064e-001	8.200084e-001	9.291147e-001	9.220960e-001	9.149171e-001	9.078876e-001	9.007208e-001	8.491342e-001	8.566061e-001	8.935826e-001	6.709665e-001	1.094971e+000	1.086590e+000	6.761269e-001	6.810666e-001	6.865769e-001	6.920092e-001	6.980775e-001	8.779350e-001	8.937573e-001	7.563686e-001	7.617285e-001	8.001436e-001	8.053882e-001	8.116643e-001	8.181951e-001	1.021248e+000	1.012160e+000	1.003337e+000	9.885400e-001	9.831847e-001	9.789386e-001	9.765056e-001	9.741835e-001	9.748296e-001	9.752095e-001	9.780003e-001	9.797247e-001	9.818186e-001	9.838445e-001	9.853293e-001	9.937919e-001	1.003379e+000	6.578578e-001	6.533693e-001	6.464381e-001	6.242750e-001	6.343712e-001	6.428505e-001	7.666051e-001	7.714974e-001	7.759428e-001	7.806599e-001	7.853861e-001	7.903676e-001	9.109321e-001	9.304764e-001	1.019499e+000	1.020132e+000	1.019788e+000	8.253641e-001	8.745286e-001	9.112923e-001	9.534329e-001	9.786929e-001	1.005962e+000	8.248858e-001	8.325363e-001	8.418957e-001	8.523274e-001	7.040800e-001	7.104995e-001	7.165814e-001	7.222691e-001	1.030784e+000	1.049753e+000	1.040326e+000	9.448880e-001	9.534604e-001	9.614712e-001	9.695518e-001	8.862543e-001	8.789222e-001	8.715044e-001	1.147420e+000	1.137480e+000	1.070041e+000	1.177548e+000	1.167248e+000	1.000964e+000	9.866698e-001	1.187027e+000	1.103769e+000	1.226773e+000	1.093670e+000	9.408271e-001	8.098782e-001	1.073998e+000	1.165558e+000	1.251178e+000	1.302682e+000	1.303654e+000	1.291963e+000	1.243030e+000	1.146775e+000	7.411499e-001	1.083514e+000	1.127862e+000	1.016867e+000	1.016531e+000	8.194520e-001	1.128710e+000	1.030016e+000	1.056424e+000	6.617391e-001	6.692796e-001	7.689390e-001	9.780598e-001	6.777471e-001	9.270905e-001	7.339839e-001	1.122937e+000	9.957279e-001	1.168813e+000	1.110464e+000	1.297705e+000	1.190072e+000	1.181104e+000	1.011791e+000	1.078578e+000	1.260567e+000	1.044621e+000	1.207114e+000	1.073197e+000	1.193464e+000	1.178583e+000	1.184147e+000	1.128748e+000	8.607137e-001	8.692049e-001	1.116769e+000	6.568689e-001	1.064881e+000	1.118502e+000	9.905954e-001	1.223957e+000	7.456332e-001	7.526899e-001	7.569792e-001	9.780365e-001	1.103846e+000	1.134787e+000	1.272340e+000	1.111304e+000	1.017838e+000	1.016919e+000	1.015922e+000	1.014377e+000	1.005222e+000	1.015514e+000	1.013533e+000	1.011699e+000	1.011684e+000	1.011557e+000	1.043243e+000	1.056355e+000	1.012722e+000	1.135881e+000	7.994356e-001	8.018911e-001	8.117596e-001	8.076420e-001	1.022784e+000	1.031607e+000	9.538731e-001	9.463343e-001	1.096362e+000	1.108106e+000	1.007892e+000	9.777645e-001	9.693019e-001	9.631750e-001	9.380905e-001	1.064373e+000	1.050693e+000	1.037718e+000	1.026384e+000	8.548280e-001	8.463987e-001	8.406760e-001	8.322777e-001	8.271757e-001	9.326414e-001	9.265227e-001	9.181612e-001	9.122059e-001	9.040368e-001	1.096641e+000	1.089220e+000	1.081398e+000	6.818104e-001	6.883078e-001	6.924427e-001	6.992808e-001	7.036617e-001	8.928385e-001	9.092992e-001	7.638652e-001	7.679210e-001	8.132155e-001	8.212125e-001	8.291439e-001	1.021929e+000	1.012940e+000	1.005864e+000	9.978835e-001	9.925953e-001	9.864597e-001	9.832287e-001	9.789773e-001	9.779243e-001	9.778115e-001	9.794499e-001	9.946975e-001	9.955762e-001	6.394682e-001	6.410813e-001	7.745387e-001	7.781029e-001	7.842786e-001	7.873313e-001	7.935305e-001	7.985768e-001	8.040348e-001	9.270636e-001	9.458876e-001	1.018351e+000	1.018894e+000	1.018233e+000	8.240461e-001	8.790587e-001	9.674145e-001	9.920820e-001	1.017360e+000	8.369764e-001	8.452555e-001	8.549612e-001	8.670666e-001	8.795061e-001	7.109659e-001	7.157902e-001	7.232134e-001	7.297114e-001	1.048040e+000	1.038925e+000	9.478683e-001	9.631862e-001	8.980223e-001	8.896574e-001	8.836038e-001	8.752257e-001	1.173886e+000	1.162065e+000	1.177627e+000	1.266115e+000	1.188589e+000	1.090122e+000	1.116524e+000	1.205145e+000	1.076758e+000	1.149389e+000	1.110673e+000	1.252578e+000	1.094316e+000	1.160204e+000	7.442981e-001	1.177284e+000	1.102959e+000	1.179694e+000	1.142901e+000	1.079078e+000	9.105468e-001	1.110504e+000	8.697431e-001	1.028924e+000	1.020427e+000	9.572232e-001	9.905358e-001	9.408223e-001	1.225679e+000	8.226301e-001	1.010105e+000	1.000392e+000	8.272255e-001	1.097645e+000	1.033089e+000	1.228811e+000	1.076786e+000	1.067806e+000	1.172405e+000	1.104080e+000	1.299860e+000	1.240306e+000	1.119768e+000	1.003277e+000	6.826449e-001	6.915877e-001	1.122373e+000	1.178747e+000	1.139855e+000	1.276569e+000	1.184285e+000	1.080622e+000	1.211257e+000	1.194807e+000	6.661037e-001	1.109970e+000	1.069707e+000	1.061567e+000	6.746728e-001	7.556130e-001	7.670743e-001	9.952677e-001	1.129361e+000	1.155368e+000	1.126796e+000	1.017252e+000	1.016387e+000	1.019620e+000	1.015942e+000	1.017483e+000	1.056556e+000	1.128002e+000	8.157412e-001	1.036779e+000	1.045943e+000	9.539905e-001	1.100673e+000	1.008824e+000	1.012945e+000	9.781396e-001	9.665826e-001	9.366884e-001	1.067119e+000	1.053081e+000	1.040697e+000	1.032089e+000	8.560011e-001	8.428004e-001	8.330698e-001	9.262566e-001	9.119912e-001	1.090995e+000	1.084103e+000	7.023534e-001	7.138097e-001	9.239618e-001	7.782592e-001	8.399596e-001	9.804590e-001	1.017693e+000	1.003393e+000	9.920784e-001	9.855884e-001	9.819078e-001	9.790769e-001	9.763943e-001	9.853435e-001	1.009077e+000	9.202418e-001	6.858917e-001	6.422763e-001	6.545703e-001	7.888033e-001	7.984978e-001	8.077529e-001	8.114669e-001	8.192817e-001	9.427086e-001	9.610592e-001	1.016020e+000	1.017601e+000	1.017604e+000	8.259521e-001	8.626160e-001	9.806485e-001	1.003412e+000	1.027307e+000	1.051234e+000	8.498452e-001	8.588095e-001	8.687680e-001	8.812094e-001	8.966740e-001	9.064766e-001	7.252542e-001	7.361368e-001	1.054204e+000	1.046216e+000	9.457732e-001	9.718349e-001	9.847552e-001	8.978425e-001	8.837376e-001	1.127450e+000	1.174015e+000	1.169397e+000	1.145977e+000	1.050342e+000	1.116591e+000	1.174399e+000	1.143832e+000	1.183193e+000	1.138286e+000	1.156146e+000	1.134554e+000	1.124190e+000	1.208882e+000	1.233752e+000	1.085967e+000	1.004748e+000	7.503280e-001	1.135155e+000	1.021465e+000	1.108383e+000	9.301405e-001	1.101759e+000	1.168484e+000	8.389673e-001	1.040540e+000	9.660932e-001	9.269289e-001	1.085609e+000	1.094854e+000	1.094362e+000	1.082263e+000	1.172421e+000	1.104421e+000	1.110234e+000	1.073122e+000	7.716057e-001	6.682440e-001	9.898534e-001	1.023269e+000	1.157925e+000	1.162740e+000	1.278129e+000	1.076068e+000	1.079422e+000	1.183963e+000	1.103903e+000	1.188691e+000	1.153096e+000	8.944679e-001	1.222007e+000	1.015680e+000	1.004019e+000	1.098454e+000	1.244364e+000	1.066589e+000	1.112419e+000	9.984266e-001	1.255127e+000	1.183870e+000	1.034812e+000	1.209791e+000	1.197009e+000	6.