# vtk DataFile Version 3.0
vtk output
ASCII
DATASET UNSTRUCTURED_GRID
POINTS 5233 float
9.997500e-001	-3.632384e-005	0.0	9.990000e-001	-1.449305e-004	0.0	9.977600e-001	-3.215741e-004	0.0	9.960200e-001	-5.579748e-004	0.0	9.937800e-001	-8.321159e-004	0.0	9.910500e-001	-1.106199e-003	0.0	9.878400e-001	-1.333459e-003	0.0	9.841300e-001	-1.473529e-003	0.0	9.799500e-001	-1.509685e-003	0.0	9.752800e-001	-1.472379e-003	0.0	9.701500e-001	-1.443092e-003	0.0	9.645400e-001	-1.538458e-003	0.0	9.584700e-001	-1.876210e-003	0.0	9.519400e-001	-2.536830e-003	0.0	9.449600e-001	-3.537484e-003	0.0	9.375400e-001	-4.830873e-003	0.0	9.296900e-001	-6.326602e-003	0.0	9.214000e-001	-7.926997e-003	0.0	9.127000e-001	-9.544071e-003	0.0	9.035800e-001	-1.113179e-002	0.0	8.940600e-001	-1.267629e-002	0.0	8.841500e-001	-1.419606e-002	0.0	8.738500e-001	-1.572880e-002	0.0	8.631800e-001	-1.731377e-002	0.0	8.521600e-001	-1.898412e-002	0.0	8.407700e-001	-2.076616e-002	0.0	8.290500e-001	-2.266100e-002	0.0	8.170100e-001	-2.465838e-002	0.0	8.046400e-001	-2.673812e-002	0.0	7.919700e-001	-2.886362e-002	0.0	7.790100e-001	-3.099614e-002	0.0	7.657800e-001	-3.309397e-002	0.0	7.522800e-001	-3.512069e-002	0.0	7.385200e-001	-3.704284e-002	0.0	7.245300e-001	-3.883096e-002	0.0	7.103200e-001	-4.046604e-002	0.0	6.958900e-001	-4.193761e-002	0.0	6.812700e-001	-4.323927e-002	0.0	6.664700e-001	-4.437326e-002	0.0	6.515000e-001	-4.534695e-002	0.0	6.363800e-001	-4.617109e-002	0.0	6.211300e-001	-4.685948e-002	0.0	6.057600e-001	-4.742800e-002	0.0	5.902800e-001	-4.789294e-002	0.0	5.747100e-001	-4.826989e-002	0.0	5.590600e-001	-4.857368e-002	0.0	5.433600e-001	-4.881722e-002	0.0	5.276100e-001	-4.901197e-002	0.0	5.118400e-001	-4.916686e-002	0.0	4.960500e-001	-4.928899e-002	0.0	4.802700e-001	-4.938312e-002	0.0	4.645100e-001	-4.945227e-002	0.0	4.487800e-001	-4.949777e-002	0.0	4.331100e-001	-4.951951e-002	0.0	4.175000e-001	-4.951639e-002	0.0	4.019700e-001	-4.948647e-002	0.0	3.865400e-001	-4.942738e-002	0.0	3.712300e-001	-4.933657e-002	0.0	3.560400e-001	-4.921134e-002	0.0	3.409900e-001	-4.904929e-002	0.0	3.261100e-001	-4.884854e-002	0.0	3.114000e-001	-4.860725e-002	0.0	2.968700e-001	-4.832410e-002	0.0	2.825500e-001	-4.799863e-002	0.0	2.684500e-001	-4.763049e-002	0.0	2.545700e-001	-4.721932e-002	0.0	2.409400e-001	-4.676592e-002	0.0	2.275700e-001	-4.627074e-002	0.0	2.144700e-001	-4.573430e-002	0.0	2.016600e-001	-4.515753e-002	0.0	1.891400e-001	-4.454035e-002	0.0	1.769300e-001	-4.388339e-002	0.0	1.650400e-001	-4.318658e-002	0.0	1.534900e-001	-4.245008e-002	0.0	1.422900e-001	-4.167317e-002	0.0	1.314400e-001	-4.085390e-002	0.0	1.209500e-001	-3.999043e-002	0.0	1.108500e-001	-3.908229e-002	0.0	1.011300e-001	-3.812512e-002	0.0	9.181000e-002	-3.711675e-002	0.0	8.290000e-002	-3.605374e-002	0.0	7.440000e-002	-3.493094e-002	0.0	6.633000e-002	-3.374538e-002	0.0	5.869000e-002	-3.249103e-002	0.0	5.149000e-002	-3.116290e-002	0.0	4.474000e-002	-2.975593e-002	0.0	3.844000e-002	-2.826266e-002	0.0	3.260000e-002	-2.667747e-002	0.0	2.723000e-002	-2.499515e-002	0.0	2.232000e-002	-2.320355e-002	0.0	1.790000e-002	-2.130530e-002	0.0	1.395000e-002	-1.928330e-002	0.0	1.049000e-002	-1.713864e-002	0.0	7.520000e-003	-1.486462e-002	0.0	5.040000e-003	-1.245471e-002	0.0	3.050000e-003	-9.902200e-003	0.0	1.560000e-003	-7.219890e-003	0.0	5.600000e-004	-4.390513e-003	0.0	6.000000e-005	-1.440963e-003	0.0	0.000000e+000	0.000000e+000	0.0	6.000000e-005	1.478753e-003	0.0	5.600000e-004	4.578745e-003	0.0	1.560000e-003	7.616823e-003	0.0	3.050000e-003	1.055195e-002	0.0	5.040000e-003	1.339705e-002	0.0	7.520000e-003	1.613361e-002	0.0	1.049000e-002	1.876498e-002	0.0	1.395000e-002	2.129445e-002	0.0	1.790000e-002	2.372541e-002	0.0	2.232000e-002	2.605148e-002	0.0	2.723000e-002	2.828818e-002	0.0	3.260000e-002	3.042656e-002	0.0	3.844000e-002	3.247590e-002	0.0	4.474000e-002	3.443669e-002	0.0	5.149000e-002	3.630986e-002	0.0	5.869000e-002	3.809887e-002	0.0	6.633000e-002	3.980409e-002	0.0	7.440000e-002	4.142597e-002	0.0	8.290000e-002	4.296667e-002	0.0	9.181000e-002	4.442448e-002	0.0	1.011300e-001	4.580114e-002	0.0	1.108500e-001	4.709647e-002	0.0	1.209500e-001	4.830913e-002	0.0	1.314400e-001	4.944131e-002	0.0	1.422900e-001	5.049062e-002	0.0	1.534900e-001	5.145715e-002	0.0	1.650400e-001	5.234170e-002	0.0	1.769300e-001	5.314411e-002	0.0	1.891400e-001	5.386369e-002	0.0	2.016600e-001	5.450063e-002	0.0	2.144700e-001	5.505478e-002	0.0	2.275700e-001	5.552697e-002	0.0	2.409400e-001	5.591729e-002	0.0	2.545700e-001	5.622639e-002	0.0	2.684500e-001	5.645493e-002	0.0	2.825500e-001	5.660348e-002	0.0	2.968700e-001	5.667311e-002	0.0	3.114000e-001	5.666468e-002	0.0	3.261100e-001	5.657917e-002	0.0	3.409900e-001	5.641755e-002	0.0	3.560400e-001	5.618045e-002	0.0	3.712300e-001	5.586875e-002	0.0	3.865400e-001	5.548311e-002	0.0	4.019700e-001	5.502340e-002	0.0	4.175000e-001	5.448958e-002	0.0	4.331100e-001	5.388135e-002	0.0	4.487800e-001	5.319809e-002	0.0	4.645100e-001	5.243785e-002	0.0	4.802700e-001	5.159968e-002	0.0	4.960500e-001	5.068140e-002	0.0	5.118400e-001	4.968047e-002	0.0	5.276100e-001	4.859563e-002	0.0	5.433600e-001	4.742371e-002	0.0	5.590600e-001	4.616401e-002	0.0	5.747100e-001	4.481405e-002	0.0	5.902800e-001	4.337473e-002	0.0	6.057600e-001	4.184636e-002	0.0	6.211300e-001	4.023159e-002	0.0	6.363800e-001	3.853371e-002	0.0	6.515000e-001	3.675769e-002	0.0	6.664700e-001	3.491158e-002	0.0	6.812700e-001	3.300560e-002	0.0	6.958900e-001	3.105063e-002	0.0	7.103200e-001	2.905935e-002	0.0	7.245300e-001	2.704881e-002	0.0	7.385200e-001	2.503323e-002	0.0	7.522800e-001	2.302917e-002	0.0	7.657800e-001	2.105681e-002	0.0	7.790100e-001	1.913379e-002	0.0	7.919700e-001	1.727650e-002	0.0	8.046400e-001	1.550441e-002	0.0	8.170100e-001	1.383581e-002	0.0	8.290500e-001	1.229194e-002	0.0	8.407700e-001	1.088945e-002	0.0	8.521600e-001	9.648427e-003	0.0	8.631800e-001	8.591819e-003	0.0	8.738500e-001	7.735092e-003	0.0	8.841500e-001	7.093854e-003	0.0	8.940600e-001	6.674982e-003	0.0	9.035800e-001	6.470949e-003	0.0	9.127000e-001	6.455975e-003	0.0	9.214000e-001	6.580802e-003	0.0	9.296900e-001	6.773107e-003	0.0	9.375400e-001	6.942598e-003	0.0	9.449600e-001	6.996461e-003	0.0	9.519400e-001	6.857450e-003	0.0	9.584700e-001	6.484593e-003	0.0	9.645400e-001	5.885795e-003	0.0	9.701500e-001	5.114483e-003	0.0	9.752800e-001	4.256691e-003	0.0	9.799500e-001	3.396521e-003	0.0	9.841300e-001	2.608752e-003	0.0	9.878400e-001	1.929123e-003	0.0	9.910500e-001	1.373598e-003	0.0	9.937800e-001	9.302443e-004	0.0	9.960200e-001	5.853964e-004	0.0	9.977600e-001	3.266845e-004	0.0	9.990000e-001	1.453982e-004	0.0	9.997500e-001	3.633126e-005	0.0	1.000000e+000	0.000000e+000	0.0	1.984229e+001	2.506660e+000	0.0	1.937166e+001	4.973800e+000	0.0	1.859553e+001	7.362490e+000	0.0	1.752613e+001	9.635070e+000	0.0	1.618034e+001	1.175571e+001	0.0	1.457937e+001	1.369094e+001	0.0	1.274848e+001	1.541027e+001	0.0	1.071654e+001	1.688656e+001	0.0	8.515590e+000	1.809654e+001	0.0	6.180340e+000	1.902113e+001	0.0	3.747630e+000	1.964575e+001	0.0	1.255810e+000	1.996053e+001	0.0	-1.255810e+000	1.996053e+001	0.0	-3.747630e+000	1.964574e+001	0.0	-6.180340e+000	1.902113e+001	0.0	-8.515590e+000	1.809654e+001	0.0	-1.071654e+001	1.688656e+001	0.0	-1.274848e+001	1.541026e+001	0.0	-1.457937e+001	1.369094e+001	0.0	-1.618034e+001	1.175570e+001	0.0	-1.752613e+001	9.635070e+000	0.0	-1.859553e+001	7.362490e+000	0.0	-1.937166e+001	4.973800e+000	0.0	-1.984229e+001	2.506660e+000	0.0	-2.000000e+001	0.000000e+000	0.0	-1.984229e+001	-2.506670e+000	0.0	-1.937166e+001	-4.973800e+000	0.0	-1.859553e+001	-7.362490e+000	0.0	-1.752613e+001	-9.635080e+000	0.0	-1.618034e+001	-1.175571e+001	0.0	-1.457937e+001	-1.369094e+001	0.0	-1.274848e+001	-1.541027e+001	0.0	-1.071653e+001	-1.688656e+001	0.0	-8.515580e+000	-1.809654e+001	0.0	-6.180340e+000	-1.902113e+001	0.0	-3.747620e+000	-1.964575e+001	0.0	-1.255810e+000	-1.996053e+001	0.0	1.255810e+000	-1.996053e+001	0.0	3.747630e+000	-1.964574e+001	0.0	6.180340e+000	-1.902113e+001	0.0	8.515590e+000	-1.809654e+001	0.0	1.071654e+001	-1.688656e+001	0.0	1.274848e+001	-1.541026e+001	0.0	1.457937e+001	-1.369094e+001	0.0	1.618034e+001	-1.175570e+001	0.0	1.752614e+001	-9.635070e+000	0.0	1.859553e+001	-7.362490e+000	0.0	1.937166e+001	-4.973790e+000	0.0	1.984229e+001	-2.506660e+000	0.0	2.000000e+001	0.000000e+000	0.0	6.116375e-002	-4.024333e-002	0.0	6.601016e-001	-5.818154e-002	0.0	4.259578e-001	6.843446e-002	0.0	6.900838e-001	4.531111e-002	0.0	3.790059e-001	-6.352380e-002	0.0	9.994620e-001	-7.012042e-004	0.0	9.985502e-001	-1.278326e-003	0.0	7.739442e-001	-4.389924e-002	0.0	6.898577e-001	-5.554053e-002	0.0	-1.544463e-003	6.958078e-003	0.0	7.468978e-001	-4.829852e-002	0.0	5.837679e-001	5.818206e-002	0.0	9.927479e-001	-3.362169e-003	0.0	9.898144e-001	-4.055367e-003	0.0	5.993381e-001	5.661097e-002	0.0	7.188352e-001	-5.222471e-002	0.0	-1.643298e-003	8.376573e-004	0.0	9.863781e-001	-4.712675e-003	0.0	9.824529e-001	-5.310156e-003	0.0	-1.471724e-003	-6.631555e-003	0.0	6.449770e-001	-5.925700e-002	0.0	8.245289e-001	-3.468116e-002	0.0	7.998472e-001	-3.927971e-002	0.0	3.488104e-001	7.009157e-002	0.0	8.478769e-001	-3.033637e-002	0.0	2.475046e-001	6.861968e-002	0.0	8.698443e-001	-2.629105e-002	0.0	9.863932e-003	2.306685e-002	0.0	8.903273e-001	-2.244847e-002	0.0	7.746417e-002	-4.344560e-002	0.0	9.092439e-001	-1.864078e-002	0.0	-1.997432e-003	-3.266034e-003	0.0	9.420187e-001	-1.138569e-002	0.0	9.264988e-001	-1.484965e-002	0.0	1.814984e-002	-2.625102e-002	0.0	4.255593e-001	-6.390603e-002	0.0	8.590418e-001	-2.827645e-002	0.0	9.557950e-001	-8.723951e-003	0.0	9.780381e-001	-5.872222e-003	0.0	9.678189e-001	-7.015615e-003	0.0	1.586194e-001	-5.360061e-002	0.0	8.999894e-001	-2.054805e-002	0.0	7.605587e-001	-4.614395e-002	0.0	9.971236e-001	-1.984338e-003	0.0	5.988209e-001	-6.162422e-002	0.0	4.412421e-001	-6.394418e-002	0.0	5.360402e-001	-6.327362e-002	0.0	4.727776e-001	-6.389700e-002	0.0	5.044099e-001	-6.368163e-002	0.0	4.885805e-001	-6.380998e-002	0.0	1.253659e-001	-5.023149e-002	0.0	2.813123e-002	-3.077028e-002	0.0	3.944290e-001	-6.369852e-002	0.0	4.660156e-002	-3.673
[...]
POINT_DATA 5233

SCALARS Density float 1
LOOKUP_TABLE default
1.170444e+000	1.140900e+000	1.118674e+000	1.097147e+000	1.077253e+000	1.062772e+000	1.058617e+000	1.067052e+000	1.085550e+000	1.108512e+000	1.129619e+000	1.143875e+000	1.149117e+000	1.145276e+000	1.133585e+000	1.116298e+000	1.096206e+000	1.076471e+000	1.060243e+000	1.049153e+000	1.042988e+000	1.040230e+000	1.038868e+000	1.037130e+000	1.033677e+000	1.027780e+000	1.019123e+000	1.007732e+000	9.938616e-001	9.779146e-001	9.603907e-001	9.419071e-001	9.231766e-001	9.045929e-001	8.854415e-001	8.656527e-001	8.478948e-001	8.361009e-001	8.320477e-001	8.346974e-001	8.416265e-001	8.506888e-001	8.603407e-001	8.697674e-001	8.784489e-001	8.862134e-001	8.929478e-001	8.986930e-001	9.034662e-001	9.073466e-001	9.103530e-001	9.125760e-001	9.140864e-001	9.150165e-001	9.154725e-001	9.155598e-001	9.153711e-001	9.150080e-001	9.145517e-001	9.140752e-001	9.136400e-001	9.132838e-001	9.130382e-001	9.129052e-001	9.128928e-001	9.129634e-001	9.131088e-001	9.132791e-001	9.134528e-001	9.135679e-001	9.135882e-001	9.134550e-001	9.131682e-001	9.126995e-001	9.120579e-001	9.111885e-001	9.101174e-001	9.089100e-001	9.076200e-001	9.063321e-001	9.052102e-001	9.044276e-001	9.042615e-001	9.050020e-001	9.070768e-001	9.110990e-001	9.176652e-001	9.275131e-001	9.415653e-001	9.606924e-001	9.863484e-001	1.020083e+000	1.062664e+000	1.114326e+000	1.173240e+000	1.235137e+000	1.290332e+000	1.337230e+000	1.351991e+000	1.347652e+000	1.345320e+000	1.319372e+000	1.258532e+000	1.195163e+000	1.127115e+000	1.061995e+000	1.003865e+000	9.541397e-001	9.124361e-001	8.781450e-001	8.499454e-001	8.264070e-001	8.067645e-001	7.901573e-001	7.760876e-001	7.642733e-001	7.541970e-001	7.453065e-001	7.372399e-001	7.297320e-001	7.227826e-001	7.166154e-001	7.113404e-001	7.066291e-001	7.020314e-001	6.973568e-001	6.928952e-001	6.887434e-001	6.847704e-001	6.807954e-001	6.769296e-001	6.733675e-001	6.702737e-001	6.676007e-001	6.652547e-001	6.630856e-001	6.609924e-001	6.589165e-001	6.567602e-001	6.545102e-001	6.521791e-001	6.498593e-001	6.475679e-001	6.451834e-001	6.425285e-001	6.396087e-001	6.364283e-001	6.330857e-001	6.296399e-001	6.259437e-001	6.225160e-001	6.192073e-001	6.171920e-001	6.130466e-001	6.055194e-001	6.000234e-001	6.900966e-001	9.026329e-001	9.951507e-001	9.897263e-001	9.819422e-001	9.858969e-001	9.912960e-001	9.963015e-001	1.002346e+000	1.009219e+000	1.016409e+000	1.023763e+000	1.031114e+000	1.038402e+000	1.045484e+000	1.052276e+000	1.058681e+000	1.064519e+000	1.069644e+000	1.073734e+000	1.076419e+000	1.077177e+000	1.075394e+000	1.070305e+000	1.061181e+000	1.047421e+000	1.028932e+000	1.006995e+000	9.851280e-001	9.682719e-001	9.622352e-001	9.707435e-001	9.919249e-001	1.018465e+000	1.043520e+000	1.064423e+000	1.080646e+000	1.092901e+000	1.102453e+000	1.111576e+000	1.121591e+000	1.134688e+000	1.150699e+000	1.145031e+000	9.991819e-001	9.997203e-001	9.997360e-001	9.996081e-001	9.995053e-001	9.993792e-001	9.992305e-001	9.990462e-001	9.988468e-001	9.987065e-001	9.986273e-001	9.986947e-001	9.988746e-001	9.992258e-001	9.995243e-001	9.997734e-001	9.999193e-001	1.000015e+000	1.000081e+000	1.000114e+000	1.000137e+000	1.000148e+000	1.000159e+000	1.000169e+000	1.000178e+000	1.000189e+000	1.000208e+000	1.000231e+000	1.000263e+000	1.000312e+000	1.000367e+000	1.000459e+000	1.000551e+000	1.000709e+000	1.000860e+000	1.001052e+000	1.001258e+000	1.001350e+000	1.001383e+000	1.001284e+000	1.001168e+000	1.000996e+000	1.000836e+000	1.000678e+000	1.000536e+000	1.000372e+000	1.000245e+000	1.000228e+000	9.996070e-001	9.988038e-001	9.173841e-001	8.405751e-001	6.453034e-001	9.924676e-001	9.169694e-001	1.147749e+000	1.130909e+000	9.549803e-001	8.494303e-001	1.298388e+000	9.206137e-001	6.043749e-001	1.079991e+000	1.071976e+000	6.149418e-001	8.838148e-001	1.344201e+000	1.072532e+000	1.081658e+000	1.318743e+000	8.450898e-001	1.012175e+000	9.868916e-001	6.577209e-001	1.028735e+000	6.746556e-001	1.037381e+000	1.026616e+000	1.043702e+000	9.144564e-001	1.057976e+000	1.344474e+000	1.116946e+000	1.085825e+000	1.009897e+000	9.167168e-001	1.033836e+000	1.133563e+000	1.096302e+000	1.125130e+000	9.169656e-001	1.049203e+000	9.378403e-001	1.111543e+000	8.699480e-001	9.159757e-001	8.982116e-001	9.129301e-001	9.071512e-001	9.104269e-001	9.159567e-001	9.621109e-001	9.171292e-001	9.263338e-001	9.170719e-001	9.157281e-001	9.163393e-001	9.462218e-001	9.154523e-001	1.102154e+000	9.167553e-001	9.168901e-001	9.142207e-001	9.148490e-001	8.857814e-001	9.170513e-001	8.611913e-001	1.040257e+000	9.829857e-001	1.094252e+000	1.131049e+000	9.374789e-001	1.070440e+000	1.127994e+000	1.112161e+000	1.250732e+000	1.021586e+000	9.158120e-001	8.924578e-001	9.029103e-001	9.715557e-001	9.153989e-001	9.163683e-001	8.782477e-001	8.413477e-001	9.208496e-001	1.182098e+000	1.043549e+000	9.166825e-001	9.170361e-001	1.186549e+000	9.160816e-001	9.144186e-001	9.155337e-001	9.156076e-001	9.147506e-001	8.646437e-001	1.335050e+000	1.281483e+000	6.233699e-001	1.346173e+000	8.722467e-001	7.914082e-001	8.252644e-001	7.248912e-001	6.480068e-001	1.114402e+000	6.257254e-001	6.359728e-001	1.015624e+000	9.828745e-001	1.070813e+000	6.326184e-001	6.423532e-001	6.528972e-001	1.036916e+000	1.060579e+000	7.567986e-001	1.036626e+000	9.805476e-001	1.003261e+000	7.392015e-001	7.782237e-001	6.670207e-001	6.718636e-001	6.986853e-001	6.624701e-001	6.392459e-001	6.505210e-001	7.085720e-001	7.191051e-001	9.988722e-001	6.898081e-001	6.815075e-001	9.857533e-001	6.137409e-001	1.014677e+000	1.002032e+000	1.041662e+000	1.028255e+000	1.064254e+000	1.054004e+000	1.067231e+000	1.070776e+000	9.885217e-001	1.050477e+000	9.958647e-001	1.068107e+000	1.071812e+000	1.048019e+000	1.059461e+000	1.021432e+000	1.035057e+000	9.969115e-001	1.008114e+000	9.979420e-001	9.872413e-001	6.213621e-001	8.061887e-001	6.855578e-001	6.778738e-001	7.034976e-001	6.941930e-001	8.069202e-001	7.138193e-001	9.789156e-001	8.468801e-001	9.166599e-001	1.137101e+000	1.132635e+000	1.000535e+000	9.160046e-001	9.031030e-001	1.196079e+000	9.021161e-001	1.079756e+000	7.476527e-001	7.668476e-001	6.693517e-001	7.315631e-001	1.055526e+000	1.071381e+000	6.647508e-001	1.084302e+000	1.094924e+000	6.601531e-001	6.552858e-001	1.020536e+000	1.162027e+000	1.126189e+000	1.137902e+000	8.525461e-001	9.345423e-001	1.104586e+000	6.293696e-001	1.234360e+000	1.084267e+000	9.153929e-001	9.164311e-001	9.154748e-001	7.812279e-001	1.274191e+000	1.312627e+000	9.183374e-001	8.671867e-001	1.065846e+000	1.133398e+000	6.077109e-001	8.553415e-001	9.662586e-001	1.080908e+000	9.183735e-001	1.029702e+000	1.015341e+000	9.232566e-001	1.295885e+000	9.199728e-001	1.056934e+000	1.120904e+000	9.215780e-001	8.839011e-001	8.512111e-001	9.169060e-001	9.245132e-001	9.189936e-001	1.048785e+000	9.806731e-001	1.084264e+000	9.557989e-001	9.898190e-001	1.058900e+000	7.421700e-001	9.944827e-001	7.108634e-001	1.066268e+000	1.075738e+000	6.640817e-001	6.331807e-001	9.979199e-001	1.065910e+000	1.086652e+000	9.969586e-001	1.048338e+000	6.836793e-001	6.666854e-001	6.874220e-001	7.503387e-001	8.502459e-001	9.204161e-001	1.037450e+000	7.221042e-001	8.249309e-001	1.016621e+000	1.096520e+000	1.063514e+000	9.213602e-001	1.177567e+000	1.115902e+000	1.105916e+000	1.133599e+000	1.232018e+000	1.176512e+000	1.338753e+000	1.339164e+000	1.025821e+000	1.188245e+000	9.296999e-001	1.119733e+000	1.092768e+000	6.513267e-001	8.979523e-001	1.083599e+000	1.038989e+000	6.117765e-001	1.084013e+000	1.325424e+000	9.179391e-001	6.540021e-001	1.023361e+000	6.744327e-001	1.034711e+000	1.043337e+000	9.265479e-001	1.056130e+000	1.077618e+000	1.112399e+000	9.794930e-001	1.118854e+000	1.118252e+000	1.091431e+000	9.218583e-001	9.351339e-001	9.508969e-001	1.105180e+000	9.153828e-001	9.132713e-001	9.104629e-001	1.000295e+000	9.189032e-001	9.185796e-001	9.185491e-001	9.504610e-001	1.090330e+000	1.102453e+000	9.217269e-001	9.225212e-001	8.922292e-001	8.709191e-001	1.111357e+000	1.101624e+000	9.018641e-001	9.189282e-001	9.221549e-001	9.219690e-001	8.857707e-001	8.785612e-001	9.411934e-001	9.344402e-001	1.092904e+000	9.187448e-001	9.189109e-001	9.211335e-001	9.207974e-001	9.195568e-001	9.191438e-001	9.182452e-001	9.182746e-001	9.188046e-001	1.334231e+000	1.220833e+000	8.441327e-001	1.062982e+000	6.309550e-001	6.366087e-001	6.395838e-001	6.426230e-001	1.032433e+000	1.003739e+000	1.041826e+000	6.456742e-001	6.485161e-001	6.566203e-001	1.051606e+000	1.005539e+000	7.938467e-001	8.082849e-001	6.803259e-001	6.772314e-001	7.162579e-001	7.285157e-001	7.350628e-001	1.037951e+000	1.013244e+000	1.007311e+000	1.031910e+000	1.054415e+000	1.058846e+000	1.065038e+000	1.062431e+000	1.049421e+000	1.043888e+000	1.025632e+000	1.019395e+000	1.001996e+000	9.978310e-001	9.905742e-001	1.004334e+000	6.241474e-001	6.275397e-001	9.524804e-001	6.920828e-001	6.914655e-001	6.959781e-001	7.007588e-001	7.057989e-001	9.945304e-001	8.664911e-001	8.924281e-001	9.938477e-001	1.005487e+000	9.070227e-001	9.028398e-001	1.184300e+000	9.220194e-001	7.596248e-001	7.699126e-001	6.692070e-001	6.717691e-001	6.590980e-001	6.615595e-001	1.017141e+000	1.029946e+000	8.631659e-001	8.561686e-001	9.629889e-001	1.262035e+000	9.185123e-001	1.302696e+000	9.210081e-001	9.212642e-001	9.765502e-001	9.031416e-001	1.071372e+000	1.080029e+000	1.069694e+000	1.012689e+000	1.175131e+000	1.089843e+000	1.126609e+000	1.141088e+000	1.112122e+000	1.167456e+000	1.039479e+000	1.314387e+000	9.318773e-001	1.081514e+000	1.087909e+000	6.221373e-001	1.135234e+000	1.172489e+000	8.865003e-001	1.245197e+000	9.028340e-001	1.067772e+000	1.036716e+000	1.135336e+000	9.210685e-001	1.031512e+000	8.725192e-001	1.093617e+000	1.100227e+000	1.045485e+000	6.388044e-001	1.011425e+000	9.912725e-001	1.098154e+000	6.415640e-001	6.830830e-001	6.712321e-001	7.250737e-001	8.099213e-001	1.134721e+000	1.272603e+000	1.250684e+000	1.008251e+000	1.288801e+000	1.110083e+000	9.339978e-001	1.332456e+000	9.262475e-001	9.179439e-001	1.015257e+000	1.088603e+000	1.053747e+000	1.034534e+000	9.956059e-001	1.058160e+000	1.009333e+000	1.059853e+000	1.061313e+000	6.740518e-001	6.798705e-001	6.940767e-001	7.626588e-001	8.607515e-001	8.636906e-001	9.239616e-001	1.047381e+000	7.310840e-001	1.032704e+000	1.106533e+000	1.131685e+000	1.216376e+000	1.209847e+000	1.319213e+000	9.946319e-001	1.157550e+000	1.145478e+000	1.106915e+000	1.086624e+000	6.064674e-001	9.192189e-001	6.579458e-001	1.018453e+000	1.025557e+000	1.041731e+000	1.047281e+000	9.411881e-001	9.369925e-001	1.053836e+000	1.061943e+000	1.106648e+000	1.110063e+000	1.089274e+000	9.489253e-001	9.631162e-001	1.102557e+000	9.161704e-001	9.138028e-001	9.206958e-001	9.201083e-001	9.780099e-001	1.091538e+000	1.100203e+000	9.275497e-001	9.268823e-001	8.983119e-001	8.928455e-001	1.101361e+000	1.094865e+000	9.189620e-001	9.343874e-001	9.303474e-001	9.291279e-001	9.282391e-001	8.867259e-001	8.801836e-001	9.650966e-001	9.548997e-001	9.470260e-001	9.211014e-001	9.211425e-001	9.211345e-001	9.257572e-001	9.251777e-001	9.245960e-001	9.233958e-001	9.228199e-001	9.211291e-001	9.210474e-001	9.223336e-001	8.629575e-001	6.441439e-001	6.469280e-001	1.021071e+000	6.496081e-001	6.524650e-001	6.551489e-001	6.607085e-001	1.044569e+000	8.254965e-001	8.431498e-001	6.864376e-001	6.901918e-001	7.379614e-001	7.460112e-001	7.542016e-001	1.012001e+000	1.051558e+000	1.056693e+000	1.061142e+000	1.059770e+000	1.057260e+000	1.049651e+000	1.044961e+000	1.039924e+000	1.028926e+000	1.023310e+000	1.017522e+000	1.006835e+000	1.002651e+000	9.991957e-001	9.976741e-001	6.310973e-001	6.353084e-001	1.001293e+000	8.583460e-001	6.402386e-001	6.983378e-001	7.028129e-001	7.079458e-001	7.134309e-001	7.193031e-001	8.853839e-001	9.112187e-001	9.889724e-001	1.000253e+000	1.010034e+000	9.108548e-001	9.073000e-001	9.405025e-001	9.725840e-001	7.724281e-001	7.837007e-001	7.961366e-001	6.769287e-001	6.635041e-001	6.660947e-001	6.686036e-001	1.017808e+000	1.026611e+000	1.035999e+000	8.735101e-001	8.672976e-001	8.625670e-001	9.218712e-001	9.215358e-001	1.279778e+000	9.401839e-001	1.098968e+000	1.055099e+000	9.038810e-001	1.292127e+000	1.122407e+000	1.074673e+000	1.082911e+000	1.007738e+000	1.083298e+000	6.503482e-001	1.251957e+000	1.054342e+000	1.165589e+000	1.021510e+000	1.091435e+000	1.230263e+000	1.000937e+000	1.200078e+000	1.143488e+000	1.161672e+000	9.853472e-001	9.313502e-001	1.050597e+000	9.231613e-001	9.431576e-001	9.206332e-001	9.245239e-001	1.065196e+000	6.264223e-001	1.019875e+000	1.021879e+000	1.030790e+000	7.421145e-001	6.941558e-001	1.090420e+000	8.424068e-001	1.034241e+000	1.114240e+000	1.074635e+000	1.107301e+000	1.098582e+000	1.075721e+000	8.894663e-001	1.197412e+000	9.053937e-001	9.194052e-001	1.104248e+000	1.093949e+000	1.134605e+000	1.049140e+000	6.470327e-001	6.832443e-001	1.264546e+000	1.090538e+000	9.973686e-001	1.055534e+000	6.802018e-001	6.867714e-001	6.901634e-001	8.719046e-001	8.802394e-001	1.044729e+000	1.127142e+000	1.164577e+000	1.227574e+000	1.297945e+000	1.027676e+000	1.101072e+000	1.089857e+000	6.212450e-001	1.021751e+000	1.028289e+000	1.039831e+000	1.045468e+000	9.520103e-001	9.469765e-001	1.051635e+000	1.058660e+000	1.066417e+000	1.100052e+000	1.101724e+000	9.607315e-001	9.735983e-001	1.099852e+000	9.191382e-001	9.171314e-001	9.225126e-001	9.217500e-001	1.090371e+000	1.096115e+000	9.334849e-001	9.320969e-001	8.998569e-001	1.095077e+000	1.091728e+000	9.347627e-001	9.496935e-001	9.378651e-001	9.360653e-001	9.347775e-001	8.939819e-001	8.893047e-001	9.919508e-001	9.786217e-001	9.673543e-001	9.585542e-001	9.239190e-001	9.238446e-001	9.236934e-001	9.234874e-001	9.304468e-001	9.296251e-001	9.286742e-001	9.279300e-001	9.271159e-001	9.240942e-001	9.242230e-001	9.264881e-001	6.524270e-001	1.034983e+000	1.026807e+000	6.551292e-001	6.575166e-001	6.602730e-001	6.628554e-001	6.658336e-001	8.610705e-001	8.818401e-001	6.980138e-001	7.025485e-001	7.491989e-001	7.574488e-001	7.669530e-001	7.766934e-001	1.045366e+000	1.050045e+000	1.053720e+000	1.056480e+000	1.055757e+000	1.054568e+000	1.051088e+000	1.045291e+000	1.040098e+000	1.036307e+000	1.026012e+000	1.020560e+000	1.015658e+000	1.010466e+000	1.005536e+000	1.000748e+000	9.969204e-001	6.440483e-001	6.415213e-001	1.007392e+000	9.673871e-001	7.546625e-001	6.362412e-001	7.067928e-001	7.116745e-001	7.163772e-001	7.221304e-001	7.281105e-001	7.349102e-001	9.039163e-001	9.284736e-001	9.959425e-001	1.006342e+000	1.014432e+000	9.144847e-001	9.114231e-001	9.084335e-001	9.568061e-001	9.873507e-001	1.019333e+000	7.866990e-001	7.981802e-001	8.117273e-001	8.263695e-001	6.686372e-001	6.717006e-001	6.744507e-001	6.771123e-001	1.039365e+000	1.026660e+000	1.032842e+000	8.826054e-001	8.785528e-001	8.727413e-001	8.725022e-001	9.257991e-001	9.253082e-001	9.248107e-001	1.106842e+000	1.094846e+000	1.094265e+000	1.137931e+000	1.133269e+000	9.271490e-001	9.484748e-001	1.159674e+000	1.053779e+000	1.212217e+000	1.037886e+000	9.367347e-001	7.623529e-001	1.091998e+000	1.186202e+000	1.265506e+000	1.311480e+000	1.311497e+000	1.301930e+000	1.233854e+000	1.104443e+000	6.906206e-001	1.092944e+000	1.093661e+000	1.081569e+000	9.867101e-001	9.251449e-001	1.085411e+000	1.041078e+000	1.029308e+000	6.422197e-001	6.541307e-001	1.017361e+000	1.024643e+000	6.595805e-001	9.077331e-001	6.859059e-001	1.078226e+000	9.521753e-001	1.128567e+000	1.062198e+000	1.304700e+000	1.153115e+000	1.140782e+000	1.076225e+000	1.019946e+000	1.257046e+000	1.059924e+000	1.186351e+000	1.028869e+000	1.212871e+000	1.139453e+000	1.147531e+000	1.082246e+000	9.270460e-001	9.278798e-001	1.070343e+000	6.324837e-001	1.027843e+000	1.091257e+000	9.009798e-001	1.241430e+000	6.931141e-001	6.984538e-001	7.012577e-001	8.848568e-001	1.123608e+000	1.155447e+000	1.273773e+000	1.059749e+000	1.025637e+000	1.031280e+000	1.037118e+000	1.043151e+000	9.567351e-001	9.630553e-001	1.049171e+000	1.055647e+000	1.061929e+000	1.069654e+000	1.093869e+000	1.094750e+000	9.664817e-001	1.097583e+000	9.219758e-001	9.207032e-001	9.241431e-001	9.235652e-001	1.087810e+000	1.091414e+000	9.391591e-001	9.369491e-001	1.091481e+000	1.090669e+000	9.500061e-001	9.452932e-001	9.422058e-001	9.417013e-001	8.992255e-001	1.004497e+000	9.907484e-001	9.790871e-001	9.705721e-001	9.271987e-001	9.265194e-001	9.266325e-001	9.259154e-001	9.259606e-001	9.348078e-001	9.343195e-001	9.324745e-001	9.321197e-001	9.305824e-001	1.045584e+000	1.038283e+000	1.032479e+000	6.602259e-001	6.637128e-001	6.653605e-001	6.688928e-001	6.705995e-001	8.789743e-001	9.000684e-001	7.072755e-001	7.104317e-001	7.680108e-001	7.800812e-001	7.915745e-001	1.044770e+000	1.048420e+000	1.049972e+000	1.051879e+000	1.051125e+000	1.051354e+000	1.048654e+000	1.045226e+000	1.040042e+000	1.033416e+000	1.015400e+000	1.004133e+000	9.983874e-001	9.338624e-001	6.622788e-001	7.170295e-001	7.202841e-001	7.273983e-001	7.309149e-001	7.391427e-001	7.458971e-001	7.538069e-001	9.223678e-001	9.454367e-001	1.002852e+000	1.011417e+000	1.018125e+000	9.180088e-001	9.139354e-001	9.713129e-001	1.000414e+000	1.029417e+000	8.027660e-001	8.145931e-001	8.283507e-001	8.448555e-001	8.614295e-001	6.744559e-001	6.765353e-001	6.806267e-001	6.838370e-001	1.032361e+000	1.036642e+000	8.899757e-001	8.831857e-001	9.303313e-001	9.289963e-001	9.288855e-001	9.278313e-001	1.129283e+000	1.120974e+000	1.153302e+000	1.277219e+000	1.153034e+000	1.089374e+000	1.074120e+000	1.220993e+000	1.037127e+000	1.108229e+000	1.090586e+000	1.252826e+000	1.046754e+000	1.130532e+000	6.948653e-001	1.137513e+000	1.119645e+000	1.196649e+000	1.107997e+000	1.089471e+000	9.143408e-001	1.067223e+000	9.303923e-001	1.079783e+000	1.072765e+000	8.942882e-001	9.566106e-001	9.404620e-001	1.216560e+000	9.264091e-001	9.672701e-001	9.617903e-001	7.876545e-001	1.053335e+000	1.040091e+000	1.242665e+000	1.092026e+000	1.089366e+000	1.132694e+000	1.060163e+000	1.308000e+000	1.235976e+000	1.092586e+000	9.461322e-001	6.637980e-001	6.682878e-001	1.080639e+000	1.139853e+000	1.097964e+000	1.281879e+000	1.146017e+000	1.030494e+000	1.197421e+000	1.175820e+000	6.363098e-001	1.066053e+000	1.034480e+000	1.033752e+000	6.558749e-001	7.030439e-001	7.124463e-001	9.231776e-001	1.146828e+000	1.172968e+000	1.087203e+000	1.031536e+000	1.042780e+000	9.732255e-001	1.054613e+000	1.064552e+000	1.088575e+000	1.095780e+000	9.244880e-001	1.084434e+000	1.086824e+000	9.433724e-001	1.089561e+000	9.639623e-001	9.800594e-001	9.509170e-001	9.476442e-001	9.080446e-001	1.015658e+000	1.001182e+000	9.889586e-001	9.829511e-001	9.295327e-001	9.286931e-001	9.280079e-001	9.375287e-001	9.350555e-001	1.046969e+000	1.041463e+000	6.725756e-001	6.780436e-001	9.169266e-001	7.228382e-001	8.063581e-001	1.033974e+000	1.044802e+000	1.047043e+000	1.046489e+000	1.043175e+000	1.039344e+000	1.026952e+000	1.019090e+000	1.008884e+000	9.977492e-001	1.006626e+000	1.006345e+000	8.264504e-001	6.493451e-001	7.340616e-001	7.460123e-001	7.584075e-001	7.638715e-001	7.754241e-001	9.398225e-001	9.618348e-001	9.969066e-001	1.011202e+000	1.022231e+000	9.220503e-001	9.187516e-001	9.847942e-001	1.011067e+000	1.038045e+000	1.064415e+000	8.200513e-001	8.322638e-001	8.458604e-001	8.624725e-001	8.823704e-001	8.952019e-001	6.837444e-001	6.899955e-001	1.033677e+000	1.035984e+000	9.005459e-001	8.933295e-001	9.027367e-001	9.330618e-001	9.315187e-001	1.086189e+000	1.132693e+000	1.126410e+000	1.104284e+000	1.005277e+000	1.076529e+000	1.134042e+000	1.104897e+000	1.166089e+000	1.108538e+000	1.113769e+000	1.099330e+000	1.139036e+000	1.221768e+000	1.232901e+000	1.048274e+000	9.614248e-001	7.015535e-001	1.093497e+000	1.058017e+000	1.071107e+000	9.232867e-001	1.115923e+000	1.147102e+000	9.298915e-001	1.077851e+000	9.025882e-001	9.152429e-001	1.086352e+000	1.087359e+000	1.054224e+000	1.040458e+000	1.132592e+000	1.064675e+000	1.070474e+000	1.040566e+000	7.191603e-001	6.481099e-001	9.230352e-001	9.820699e-001	1.116671e+000	1.122053e+000	1.286462e+000	1.085444e+000	1.043926e+000	1.147747e+000	1.088703e+000	1.202735e+000	1.127429e+000	9.198881e-001	1.217221e+000	9.777976e-001	9.699361e-001	1.058825e+000	1.255594e+000	1.084413e+000	1.090619e+000	9.431243e-001	1.259057e+000	1.146583e+000	9.919433e-001	1.200956e+000	1.184159e+000	6.