# vtk DataFile Version 3.0
vtk output
ASCII
DATASET UNSTRUCTURED_GRID
POINTS 5233 float
9.997500e-001	-3.632477e-005	0.0	9.990000e-001	-1.449891e-004	0.0	9.977600e-001	-3.222141e-004	0.0	9.960200e-001	-5.614007e-004	0.0	9.937800e-001	-8.443311e-004	0.0	9.910500e-001	-1.139312e-003	0.0	9.878400e-001	-1.406704e-003	0.0	9.841300e-001	-1.611895e-003	0.0	9.799500e-001	-1.737416e-003	0.0	9.752800e-001	-1.805510e-003	0.0	9.701500e-001	-1.881255e-003	0.0	9.645400e-001	-2.065177e-003	0.0	9.584700e-001	-2.467287e-003	0.0	9.519400e-001	-3.179078e-003	0.0	9.449600e-001	-4.250555e-003	0.0	9.375400e-001	-5.684367e-003	0.0	9.296900e-001	-7.444989e-003	0.0	9.214000e-001	-9.480588e-003	0.0	9.127000e-001	-1.172390e-002	0.0	9.035800e-001	-1.412117e-002	0.0	8.940600e-001	-1.661763e-002	0.0	8.841500e-001	-1.916695e-002	0.0	8.738500e-001	-2.172940e-002	0.0	8.631800e-001	-2.426366e-002	0.0	8.521600e-001	-2.673341e-002	0.0	8.407700e-001	-2.911734e-002	0.0	8.290500e-001	-3.138931e-002	0.0	8.170100e-001	-3.353915e-002	0.0	8.046400e-001	-3.556855e-002	0.0	7.919700e-001	-3.747976e-002	0.0	7.790100e-001	-3.928401e-002	0.0	7.657800e-001	-4.099421e-002	0.0	7.522800e-001	-4.262662e-002	0.0	7.385200e-001	-4.419503e-002	0.0	7.245300e-001	-4.570880e-002	0.0	7.103200e-001	-4.717664e-002	0.0	6.958900e-001	-4.860489e-002	0.0	6.812700e-001	-4.999382e-002	0.0	6.664700e-001	-5.134298e-002	0.0	6.515000e-001	-5.264968e-002	0.0	6.363800e-001	-5.390871e-002	0.0	6.211300e-001	-5.511388e-002	0.0	6.057600e-001	-5.625922e-002	0.0	5.902800e-001	-5.733847e-002	0.0	5.747100e-001	-5.834479e-002	0.0	5.590600e-001	-5.927234e-002	0.0	5.433600e-001	-6.011466e-002	0.0	5.276100e-001	-6.086761e-002	0.0	5.118400e-001	-6.152621e-002	0.0	4.960500e-001	-6.208752e-002	0.0	4.802700e-001	-6.254816e-002	0.0	4.645100e-001	-6.290626e-002	0.0	4.487800e-001	-6.316053e-002	0.0	4.331100e-001	-6.331011e-002	0.0	4.175000e-001	-6.335526e-002	0.0	4.019700e-001	-6.329660e-002	0.0	3.865400e-001	-6.313556e-002	0.0	3.712300e-001	-6.287430e-002	0.0	3.560400e-001	-6.251512e-002	0.0	3.409900e-001	-6.206111e-002	0.0	3.261100e-001	-6.151630e-002	0.0	3.114000e-001	-6.088409e-002	0.0	2.968700e-001	-6.016829e-002	0.0	2.825500e-001	-5.937393e-002	0.0	2.684500e-001	-5.850523e-002	0.0	2.545700e-001	-5.756556e-002	0.0	2.409400e-001	-5.656018e-002	0.0	2.275700e-001	-5.549290e-002	0.0	2.144700e-001	-5.436723e-002	0.0	2.016600e-001	-5.318728e-002	0.0	1.891400e-001	-5.195498e-002	0.0	1.769300e-001	-5.067380e-002	0.0	1.650400e-001	-4.934593e-002	0.0	1.534900e-001	-4.797445e-002	0.0	1.422900e-001	-4.656108e-002	0.0	1.314400e-001	-4.510595e-002	0.0	1.209500e-001	-4.361008e-002	0.0	1.108500e-001	-4.207747e-002	0.0	1.011300e-001	-4.050613e-002	0.0	9.181000e-002	-3.889855e-002	0.0	8.290000e-002	-3.725581e-002	0.0	7.440000e-002	-3.557703e-002	0.0	6.633000e-002	-3.386529e-002	0.0	5.869000e-002	-3.211971e-002	0.0	5.149000e-002	-3.034147e-002	0.0	4.474000e-002	-2.853193e-002	0.0	3.844000e-002	-2.668967e-002	0.0	3.260000e-002	-2.481573e-002	0.0	2.723000e-002	-2.291138e-002	0.0	2.232000e-002	-2.096991e-002	0.0	1.790000e-002	-1.899998e-002	0.0	1.395000e-002	-1.698845e-002	0.0	1.049000e-002	-1.493948e-002	0.0	7.520000e-003	-1.284710e-002	0.0	5.040000e-003	-1.070282e-002	0.0	3.050000e-003	-8.494023e-003	0.0	1.560000e-003	-6.218070e-003	0.0	5.600000e-004	-3.834330e-003	0.0	6.000000e-005	-1.307301e-003	0.0	0.000000e+000	0.000000e+000	0.0	6.000000e-005	1.555821e-003	0.0	5.600000e-004	5.014719e-003	0.0	1.560000e-003	8.583244e-003	0.0	3.050000e-003	1.216978e-002	0.0	5.040000e-003	1.576196e-002	0.0	7.520000e-003	1.931420e-002	0.0	1.049000e-002	2.281113e-002	0.0	1.395000e-002	2.623980e-002	0.0	1.790000e-002	2.958929e-002	0.0	2.232000e-002	3.283653e-002	0.0	2.723000e-002	3.599037e-002	0.0	3.260000e-002	3.902673e-002	0.0	3.844000e-002	4.194845e-002	0.0	4.474000e-002	4.474717e-002	0.0	5.149000e-002	4.741623e-002	0.0	5.869000e-002	4.995364e-002	0.0	6.633000e-002	5.235401e-002	0.0	7.440000e-002	5.461299e-002	0.0	8.290000e-002	5.672948e-002	0.0	9.181000e-002	5.869786e-002	0.0	1.011300e-001	6.051795e-002	0.0	1.108500e-001	6.218766e-002	0.0	1.209500e-001	6.370414e-002	0.0	1.314400e-001	6.506951e-002	0.0	1.422900e-001	6.628081e-002	0.0	1.534900e-001	6.733875e-002	0.0	1.650400e-001	6.824513e-002	0.0	1.769300e-001	6.900106e-002	0.0	1.891400e-001	6.960767e-002	0.0	2.016600e-001	7.006733e-002	0.0	2.144700e-001	7.038264e-002	0.0	2.275700e-001	7.055718e-002	0.0	2.409400e-001	7.059456e-002	0.0	2.545700e-001	7.049905e-002	0.0	2.684500e-001	7.027533e-002	0.0	2.825500e-001	6.992905e-002	0.0	2.968700e-001	6.946579e-002	0.0	3.114000e-001	6.889164e-002	0.0	3.261100e-001	6.821402e-002	0.0	3.409900e-001	6.744004e-002	0.0	3.560400e-001	6.657644e-002	0.0	3.712300e-001	6.563185e-002	0.0	3.865400e-001	6.461460e-002	0.0	4.019700e-001	6.353165e-002	0.0	4.175000e-001	6.239103e-002	0.0	4.331100e-001	6.120048e-002	0.0	4.487800e-001	5.996719e-002	0.0	4.645100e-001	5.869599e-002	0.0	4.802700e-001	5.739311e-002	0.0	4.960500e-001	5.606207e-002	0.0	5.118400e-001	5.470507e-002	0.0	5.276100e-001	5.332472e-002	0.0	5.433600e-001	5.191971e-002	0.0	5.590600e-001	5.049010e-002	0.0	5.747100e-001	4.903217e-002	0.0	5.902800e-001	4.754414e-002	0.0	6.057600e-001	4.602187e-002	0.0	6.211300e-001	4.446211e-002	0.0	6.363800e-001	4.286099e-002	0.0	6.515000e-001	4.121536e-002	0.0	6.664700e-001	3.952431e-002	0.0	6.812700e-001	3.778858e-002	0.0	6.958900e-001	3.600951e-002	0.0	7.103200e-001	3.419012e-002	0.0	7.245300e-001	3.233771e-002	0.0	7.385200e-001	3.045714e-002	0.0	7.522800e-001	2.855551e-002	0.0	7.657800e-001	2.664334e-002	0.0	7.790100e-001	2.472867e-002	0.0	7.919700e-001	2.281807e-002	0.0	8.046400e-001	2.092093e-002	0.0	8.170100e-001	1.904521e-002	0.0	8.290500e-001	1.720215e-002	0.0	8.407700e-001	1.539704e-002	0.0	8.521600e-001	1.363799e-002	0.0	8.631800e-001	1.193676e-002	0.0	8.738500e-001	1.029377e-002	0.0	8.841500e-001	8.712903e-003	0.0	8.940600e-001	7.195983e-003	0.0	9.035800e-001	5.742863e-003	0.0	9.127000e-001	4.361947e-003	0.0	9.214000e-001	3.077435e-003	0.0	9.296900e-001	1.928752e-003	0.0	9.375400e-001	9.788015e-004	0.0	9.449600e-001	2.906088e-004	0.0	9.519400e-001	-8.697687e-005	0.0	9.584700e-001	-1.477787e-004	0.0	9.645400e-001	5.588150e-005	0.0	9.701500e-001	4.191612e-004	0.0	9.752800e-001	8.105022e-004	0.0	9.799500e-001	1.114463e-003	0.0	9.841300e-001	1.258002e-003	0.0	9.878400e-001	1.228575e-003	0.0	9.910500e-001	1.061677e-003	0.0	9.937800e-001	8.164272e-004	0.0	9.960200e-001	5.537130e-004	0.0	9.977600e-001	3.207946e-004	0.0	9.990000e-001	1.448600e-004	0.0	9.997500e-001	3.632273e-005	0.0	1.000000e+000	0.000000e+000	0.0	1.984229e+001	2.506660e+000	0.0	1.937166e+001	4.973800e+000	0.0	1.859553e+001	7.362490e+000	0.0	1.752613e+001	9.635070e+000	0.0	1.618034e+001	1.175571e+001	0.0	1.457937e+001	1.369094e+001	0.0	1.274848e+001	1.541027e+001	0.0	1.071654e+001	1.688656e+001	0.0	8.515590e+000	1.809654e+001	0.0	6.180340e+000	1.902113e+001	0.0	3.747630e+000	1.964575e+001	0.0	1.255810e+000	1.996053e+001	0.0	-1.255810e+000	1.996053e+001	0.0	-3.747630e+000	1.964574e+001	0.0	-6.180340e+000	1.902113e+001	0.0	-8.515590e+000	1.809654e+001	0.0	-1.071654e+001	1.688656e+001	0.0	-1.274848e+001	1.541026e+001	0.0	-1.457937e+001	1.369094e+001	0.0	-1.618034e+001	1.175570e+001	0.0	-1.752613e+001	9.635070e+000	0.0	-1.859553e+001	7.362490e+000	0.0	-1.937166e+001	4.973800e+000	0.0	-1.984229e+001	2.506660e+000	0.0	-2.000000e+001	0.000000e+000	0.0	-1.984229e+001	-2.506670e+000	0.0	-1.937166e+001	-4.973800e+000	0.0	-1.859553e+001	-7.362490e+000	0.0	-1.752613e+001	-9.635080e+000	0.0	-1.618034e+001	-1.175571e+001	0.0	-1.457937e+001	-1.369094e+001	0.0	-1.274848e+001	-1.541027e+001	0.0	-1.071653e+001	-1.688656e+001	0.0	-8.515580e+000	-1.809654e+001	0.0	-6.180340e+000	-1.902113e+001	0.0	-3.747620e+000	-1.964575e+001	0.0	-1.255810e+000	-1.996053e+001	0.0	1.255810e+000	-1.996053e+001	0.0	3.747630e+000	-1.964574e+001	0.0	6.180340e+000	-1.902113e+001	0.0	8.515590e+000	-1.809654e+001	0.0	1.071654e+001	-1.688656e+001	0.0	1.274848e+001	-1.541026e+001	0.0	1.457937e+001	-1.369094e+001	0.0	1.618034e+001	-1.175570e+001	0.0	1.752614e+001	-9.635070e+000	0.0	1.859553e+001	-7.362490e+000	0.0	1.937166e+001	-4.973790e+000	0.0	1.984229e+001	-2.506660e+000	0.0	2.000000e+001	0.000000e+000	0.0	6.095569e-002	-4.020079e-002	0.0	6.603031e-001	-6.559144e-002	0.0	4.262901e-001	7.619768e-002	0.0	6.901606e-001	5.017857e-002	0.0	3.788877e-001	-7.694200e-002	0.0	9.994655e-001	-6.915390e-004	0.0	9.985597e-001	-1.268075e-003	0.0	7.741060e-001	-5.188739e-002	0.0	6.900144e-001	-6.255130e-002	0.0	-1.780838e-003	7.816927e-003	0.0	7.470229e-001	-5.573430e-002	0.0	5.839114e-001	6.255331e-002	0.0	9.927772e-001	-3.387539e-003	0.0	9.898526e-001	-4.115738e-003	0.0	5.994612e-001	6.094304e-002	0.0	7.189613e-001	-5.926723e-002	0.0	-1.683125e-003	1.051134e-003	0.0	9.864270e-001	-4.826417e-003	0.0	9.825139e-001	-5.496855e-003	0.0	-1.472339e-003	-5.896612e-003	0.0	6.452006e-001	-6.701671e-002	0.0	8.248445e-001	-4.298650e-002	0.0	8.000795e-001	-4.766681e-002	0.0	3.491263e-001	8.085904e-002	0.0	8.482594e-001	-3.787191e-002	0.0	2.476282e-001	8.304427e-002	0.0	8.702535e-001	-3.240480e-002	0.0	9.342880e-003	2.751404e-002	0.0	8.907100e-001	-2.679994e-002	0.0	7.719837e-002	-4.440417e-002	0.0	9.095569e-001	-2.134994e-002	0.0	-2.064723e-003	-2.893976e-003	0.0	9.421834e-001	-1.232672e-002	0.0	9.267292e-001	-1.640046e-002	0.0	1.815217e-002	-2.422644e-002	0.0	4.255549e-001	-7.749679e-002	0.0	8.594441e-001	-3.516898e-002	0.0	9.559197e-001	-9.390957e-003	0.0	9.781121e-001	-6.148838e-003	0.0	9.679177e-001	-7.491444e-003	0.0	1.582062e-001	-5.936201e-002	0.0	9.003411e-001	-2.403502e-002	0.0	7.606972e-001	-5.385384e-002	0.0	9.971395e-001	-1.977941e-003	0.0	5.990866e-001	-7.085929e-002	0.0	4.412754e-001	-7.744877e-002	0.0	5.362701e-001	-7.476115e-002	0.0	4.728845e-001	-7.700492e-002	0.0	5.045848e-001	-7.610418e-002	0.0	4.887223e-001	-7.660996e-002	0.0	1.249895e-001	-5.411432e-002	0.0	2.807981e-002	-2.900831e-002	0.0	3.943485e-001	-7.724332e-002	0.0	4.645640e-002	-3.5
[...]
POINT_DATA 5233

SCALARS Density float 1
LOOKUP_TABLE default
1.163686e+000	1.136747e+000	1.117973e+000	1.100621e+000	1.085247e+000	1.074424e+000	1.071522e+000	1.078400e+000	1.093604e+000	1.113140e+000	1.132296e+000	1.146925e+000	1.154956e+000	1.156038e+000	1.150783e+000	1.140331e+000	1.125930e+000	1.108812e+000	1.089925e+000	1.069930e+000	1.049249e+000	1.028194e+000	1.007043e+000	9.863326e-001	9.666393e-001	9.486942e-001	9.332017e-001	9.208348e-001	9.118557e-001	9.060669e-001	9.029657e-001	9.019500e-001	9.025618e-001	9.042228e-001	9.057924e-001	9.063511e-001	9.077502e-001	9.153225e-001	9.288304e-001	9.257567e-001	8.662349e-001	7.640077e-001	7.118045e-001	7.120814e-001	7.227119e-001	7.310307e-001	7.364649e-001	7.414328e-001	7.465825e-001	7.518134e-001	7.571438e-001	7.630473e-001	7.695596e-001	7.764742e-001	7.833571e-001	7.900273e-001	7.965611e-001	8.031141e-001	8.097654e-001	8.164751e-001	8.231928e-001	8.298565e-001	8.364063e-001	8.428130e-001	8.490249e-001	8.550134e-001	8.607855e-001	8.663469e-001	8.716891e-001	8.767911e-001	8.816375e-001	8.862497e-001	8.907031e-001	8.950684e-001	8.993940e-001	9.036576e-001	9.079046e-001	9.122280e-001	9.166818e-001	9.212973e-001	9.261655e-001	9.313230e-001	9.368524e-001	9.428057e-001	9.492825e-001	9.564545e-001	9.644595e-001	9.735434e-001	9.840876e-001	9.964524e-001	1.011417e+000	1.030089e+000	1.053813e+000	1.084874e+000	1.125331e+000	1.175385e+000	1.232158e+000	1.299588e+000	1.332351e+000	1.341697e+000	1.354187e+000	1.350300e+000	1.323712e+000	1.288913e+000	1.244624e+000	1.196598e+000	1.147827e+000	1.100028e+000	1.054313e+000	1.011725e+000	9.725002e-001	9.365044e-001	9.038068e-001	8.740796e-001	8.470149e-001	8.223843e-001	7.998031e-001	7.789336e-001	7.596827e-001	7.419459e-001	7.257544e-001	7.111025e-001	6.977584e-001	6.852080e-001	6.731238e-001	6.615993e-001	6.512032e-001	6.420093e-001	6.336932e-001	6.257631e-001	6.181839e-001	6.111436e-001	6.049444e-001	5.996134e-001	5.951151e-001	5.912916e-001	5.880062e-001	5.852131e-001	5.827671e-001	5.806651e-001	5.788576e-001	5.774689e-001	5.766884e-001	5.764396e-001	5.765067e-001	5.766825e-001	5.769479e-001	5.773701e-001	5.775211e-001	5.782797e-001	5.793114e-001	5.821401e-001	5.826027e-001	5.827639e-001	6.588463e-001	8.639370e-001	9.936773e-001	9.950408e-001	9.860183e-001	9.860859e-001	9.880706e-001	9.892865e-001	9.912771e-001	9.941560e-001	9.976677e-001	1.001659e+000	1.006087e+000	1.010860e+000	1.015898e+000	1.021187e+000	1.026659e+000	1.032288e+000	1.038055e+000	1.043891e+000	1.049776e+000	1.055661e+000	1.061589e+000	1.067710e+000	1.074293e+000	1.081718e+000	1.090261e+000	1.099902e+000	1.109988e+000	1.119318e+000	1.126204e+000	1.128828e+000	1.125511e+000	1.115163e+000	1.097782e+000	1.075494e+000	1.053199e+000	1.036695e+000	1.031284e+000	1.038608e+000	1.055214e+000	1.075855e+000	1.096911e+000	1.118301e+000	1.139709e+000	1.135755e+000	9.984496e-001	9.996611e-001	9.998558e-001	9.997521e-001	9.997136e-001	9.996572e-001	9.995850e-001	9.994894e-001	9.993810e-001	9.993129e-001	9.992894e-001	9.993667e-001	9.995210e-001	9.997762e-001	9.999814e-001	1.000136e+000	1.000216e+000	1.000260e+000	1.000278e+000	1.000284e+000	1.000282e+000	1.000278e+000	1.000274e+000	1.000277e+000	1.000279e+000	1.000286e+000	1.000301e+000	1.000322e+000	1.000351e+000	1.000394e+000	1.000441e+000	1.000513e+000	1.000578e+000	1.000681e+000	1.000763e+000	1.000845e+000	1.000910e+000	1.000901e+000	1.000870e+000	1.000781e+000	1.000697e+000	1.000589e+000	1.000488e+000	1.000389e+000	1.000305e+000	1.000184e+000	1.000076e+000	1.000165e+000	9.991220e-001	9.976638e-001	9.506240e-001	9.398368e-001	5.784592e-001	9.932395e-001	8.051274e-001	1.142276e+000	1.128223e+000	9.084231e-001	9.132498e-001	1.334762e+000	9.079872e-001	7.427754e-001	1.087724e+000	1.082009e+000	9.934784e-001	9.096363e-001	1.346370e+000	1.082949e+000	1.090718e+000	1.288580e+000	9.160388e-001	9.351195e-001	9.163735e-001	5.842862e-001	9.650521e-001	6.112584e-001	1.001776e+000	1.149293e+000	1.040499e+000	9.376302e-001	1.077891e+000	1.324160e+000	1.134724e+000	1.110951e+000	1.030892e+000	7.854348e-001	9.829008e-001	1.142469e+000	1.103262e+000	1.130022e+000	8.979785e-001	1.059530e+000	9.074429e-001	1.112100e+000	7.134087e-001	7.785125e-001	7.439138e-001	7.654589e-001	7.545283e-001	7.598576e-001	9.118030e-001	9.987710e-001	7.986735e-001	9.663307e-001	7.921608e-001	8.314422e-001	8.182253e-001	9.863662e-001	8.443426e-001	1.124410e+000	9.025741e-001	8.838647e-001	9.318680e-001	9.213519e-001	7.328202e-001	8.933715e-001	7.247842e-001	1.021149e+000	1.013350e+000	1.098488e+000	1.110874e+000	1.063173e+000	1.095202e+000	1.140996e+000	1.117443e+000	1.310412e+000	9.489130e-001	8.624373e-001	7.388896e-001	9.091957e-001	9.112567e-001	9.164946e-001	8.735430e-001	7.222242e-001	9.261824e-001	9.580637e-001	1.149981e+000	1.052222e+000	8.116344e-001	8.887025e-001	1.179087e+000	8.680831e-001	9.264674e-001	8.379547e-001	8.566041e-001	7.717358e-001	9.095651e-001	1.351864e+000	1.242936e+000	5.826284e-001	1.338797e+000	9.853927e-001	8.614663e-001	9.181654e-001	7.223855e-001	5.787686e-001	1.090506e+000	5.822796e-001	5.786797e-001	1.083732e+000	1.109916e+000	1.070713e+000	5.791028e-001	5.783945e-001	5.804715e-001	1.100966e+000	1.084748e+000	7.920472e-001	1.067426e+000	1.116128e+000	1.114525e+000	7.540827e-001	8.364950e-001	5.965513e-001	6.056318e-001	6.599122e-001	5.896434e-001	5.784879e-001	5.793885e-001	6.824131e-001	7.084002e-001	9.909273e-001	6.413963e-001	6.250099e-001	9.908070e-001	5.940352e-001	1.006118e+000	9.985854e-001	1.025257e+000	1.015169e+000	1.047249e+000	1.036060e+000	1.077403e+000	1.058662e+000	1.117412e+000	1.092740e+000	1.098758e+000	1.052920e+000	1.064537e+000	1.030583e+000	1.041617e+000	1.010487e+000	1.020118e+000	9.955457e-001	1.002112e+000	9.886804e-001	9.918261e-001	5.801800e-001	1.005329e+000	6.329841e-001	6.177682e-001	6.706198e-001	6.503339e-001	8.885796e-001	6.951632e-001	1.105473e+000	9.504312e-001	8.788138e-001	1.236339e+000	1.138739e+000	9.242259e-001	8.248526e-001	7.491703e-001	1.276459e+000	1.023004e+000	1.193382e+000	7.722858e-001	8.133977e-001	6.007476e-001	7.374933e-001	1.053780e+000	1.046676e+000	5.928847e-001	1.048531e+000	1.058360e+000	5.868404e-001	5.821232e-001	1.108616e+000	1.153526e+000	1.108788e+000	1.125475e+000	8.126588e-001	9.756711e-001	1.073367e+000	5.794381e-001	1.195326e+000	1.078581e+000	9.438470e-001	9.071884e-001	8.505705e-001	8.278222e-001	1.314353e+000	1.335902e+000	8.526211e-001	9.148885e-001	1.082473e+000	1.120844e+000	6.402034e-001	9.204505e-001	9.169466e-001	1.089224e+000	8.336372e-001	9.810622e-001	9.508091e-001	9.377598e-001	1.271386e+000	8.812359e-001	1.065812e+000	1.129202e+000	9.061265e-001	9.140219e-001	9.339281e-001	7.812469e-001	9.440665e-001	8.078400e-001	1.050193e+000	9.217013e-001	1.183297e+000	1.066086e+000	9.942332e-001	1.044820e+000	7.514049e-001	9.951090e-001	6.821286e-001	1.061312e+000	1.058349e+000	5.920954e-001	5.834960e-001	1.106989e+000	1.067073e+000	1.062570e+000	1.103907e+000	1.066673e+000	6.266371e-001	5.955831e-001	6.341259e-001	7.682014e-001	9.325592e-001	8.864866e-001	1.143742e+000	7.068858e-001	9.022017e-001	1.087905e+000	1.072017e+000	1.073077e+000	9.012751e-001	1.169616e+000	1.098459e+000	1.084345e+000	1.221679e+000	1.290455e+000	1.154930e+000	1.329814e+000	1.338661e+000	1.044286e+000	1.181048e+000	9.582766e-001	1.118522e+000	1.097363e+000	5.820636e-001	7.467857e-001	1.092031e+000	1.015418e+000	9.132302e-001	1.091018e+000	1.307200e+000	7.880181e-001	5.832893e-001	9.651220e-001	6.084540e-001	9.979641e-001	1.032914e+000	9.508619e-001	1.066795e+000	1.096792e+000	1.126198e+000	1.010767e+000	1.129625e+000	1.124991e+000	1.099058e+000	9.160220e-001	9.128957e-001	9.141032e-001	1.106922e+000	7.748431e-001	7.690497e-001	7.633670e-001	1.026268e+000	8.014456e-001	7.948364e-001	8.271478e-001	9.857577e-001	1.109237e+000	1.119238e+000	9.110318e-001	9.318687e-001	7.409905e-001	7.237758e-001	1.117591e+000	1.108297e+000	9.137373e-001	9.130308e-001	9.263623e-001	9.210972e-001	7.336148e-001	7.220992e-001	9.755862e-001	9.664926e-001	1.091045e+000	8.206708e-001	8.142321e-001	8.964712e-001	8.915551e-001	8.758373e-001	8.702828e-001	8.464091e-001	8.400658e-001	8.645705e-001	1.344143e+000	1.193339e+000	9.306498e-001	1.059693e+000	5.846419e-001	5.809738e-001	5.808720e-001	5.806198e-001	1.076921e+000	1.097366e+000	1.092628e+000	5.807489e-001	5.812507e-001	5.848816e-001	1.086011e+000	1.106760e+000	8.507999e-001	8.756087e-001	6.199391e-001	6.138173e-001	6.939540e-001	7.211036e-001	7.358580e-001	1.024025e+000	1.006396e+000	1.002786e+000	1.019251e+000	1.039445e+000	1.079396e+000	1.055726e+000	1.050206e+000	1.034226e+000	1.029075e+000	1.014658e+000	1.010335e+000	9.996720e-001	9.969442e-001	9.938643e-001	9.911986e-001	5.830487e-001	5.808442e-001	9.954258e-001	1.007713e+000	6.422078e-001	6.512414e-001	6.609052e-001	6.713020e-001	1.104537e+000	9.612969e-001	9.943662e-001	9.287998e-001	9.385617e-001	7.577366e-001	7.520629e-001	1.258107e+000	1.029423e+000	7.865043e-001	8.063844e-001	5.993385e-001	6.036220e-001	5.867798e-001	5.891583e-001	1.103773e+000	1.098785e+000	7.740458e-001	8.793756e-001	9.973502e-001	1.232776e+000	8.586808e-001	1.288168e+000	8.111833e-001	8.552423e-001	9.274973e-001	7.555778e-001	1.084852e+000	1.067577e+000	1.065736e+000	1.093813e+000	1.241212e+000	1.073629e+000	1.112248e+000	1.131694e+000	1.112036e+000	1.159971e+000	1.055428e+000	1.327579e+000	9.439134e-001	1.096311e+000	1.094074e+000	5.932168e-001	1.131654e+000	1.157926e+000	9.184837e-001	1.224408e+000	9.184579e-001	1.076240e+000	1.011127e+000	1.127522e+000	8.364480e-001	9.954872e-001	9.203544e-001	1.097995e+000	1.100378e+000	1.073413e+000	5.859364e-001	1.098909e+000	9.959544e-001	1.082349e+000	5.857276e-001	6.228483e-001	6.019133e-001	7.075060e-001	8.659821e-001	1.123862e+000	1.253995e+000	1.291836e+000	1.104370e+000	1.315557e+000	1.117777e+000	9.506513e-001	1.334035e+000	9.099631e-001	7.847712e-001	1.037346e+000	1.174866e+000	1.042563e+000	1.022992e+000	9.968943e-001	1.067864e+000	1.097579e+000	1.068771e+000	1.063312e+000	6.063909e-001	6.167222e-001	6.443357e-001	7.838337e-001	9.353492e-001	9.276383e-001	8.894949e-001	1.139861e+000	7.201026e-001	1.080625e+000	1.091399e+000	1.209082e+000	1.270642e+000	1.190832e+000	1.312174e+000	1.021322e+000	1.150513e+000	1.139767e+000	1.113836e+000	1.093748e+000	7.760015e-001	7.911699e-001	5.875981e-001	9.660731e-001	9.803630e-001	1.026852e+000	1.042509e+000	9.659105e-001	9.579577e-001	1.057467e+000	1.071790e+000	1.117584e+000	1.119158e+000	1.096580e+000	9.197600e-001	9.228806e-001	1.104561e+000	7.788963e-001	7.731930e-001	8.047127e-001	7.979311e-001	1.007409e+000	1.105933e+000	1.113068e+000	9.205050e-001	9.151626e-001	7.501431e-001	7.437803e-001	1.108132e+000	1.101892e+000	9.180301e-001	9.183374e-001	9.376055e-001	9.315713e-001	9.259263e-001	7.362062e-001	7.313958e-001	9.953886e-001	9.845534e-001	9.747229e-001	8.300929e-001	8.237181e-001	8.174229e-001	9.049807e-001	8.999297e-001	8.947810e-001	8.841243e-001	8.786223e-001	8.490616e-001	8.427886e-001	8.729999e-001	9.438694e-001	5.838910e-001	5.834954e-001	1.087882e+000	5.838662e-001	5.845036e-001	5.857972e-001	5.897606e-001	1.085539e+000	8.903053e-001	9.164028e-001	6.293314e-001	6.366814e-001	7.341605e-001	7.502401e-001	7.668785e-001	1.006620e+000	1.080052e+000	1.074333e+000	1.057956e+000	1.052742e+000	1.047674e+000	1.037440e+000	1.032496e+000	1.027701e+000	1.018516e+000	1.014308e+000	1.010253e+000	1.003223e+000	1.000360e+000	9.979586e-001	9.943189e-001	5.743099e-001	5.888007e-001	9.909413e-001	1.000947e+000	9.986085e-001	6.528468e-001	6.619004e-001	6.723216e-001	6.835031e-001	6.955008e-001	9.725974e-001	1.003420e+000	9.339720e-001	9.427136e-001	9.534015e-001	7.673443e-001	7.612612e-001	1.036291e+000	1.069874e+000	8.020474e-001	8.219041e-001	8.432131e-001	6.113405e-001	5.923566e-001	5.950400e-001	5.981539e-001	1.097920e+000	1.095003e+000	1.090747e+000	7.552907e-001	8.379970e-001	9.169062e-001	8.672179e-001	8.612999e-001	1.268922e+000	9.500982e-001	1.087513e+000	1.072974e+000	7.591735e-001	1.309122e+000	1.120317e+000	1.085170e+000	1.094168e+000	1.030358e+000	1.074940e+000	5.891942e-001	1.238872e+000	1.134647e+000	1.156916e+000	1.089370e+000	1.080483e+000	1.271164e+000	9.941748e-001	1.250986e+000	1.135587e+000	1.153868e+000	9.383935e-001	9.145641e-001	1.064424e+000	8.154032e-001	9.573025e-001	7.956792e-001	8.587216e-001	1.070947e+000	5.925405e-001	1.091211e+000	1.091446e+000	1.022099e+000	7.363362e-001	6.415831e-001	1.095866e+000	9.043227e-001	1.008869e+000	1.101303e+000	1.071495e+000	1.107867e+000	1.105430e+000	1.083961e+000	9.231221e-001	1.185200e+000	9.224339e-001	9.214911e-001	1.106327e+000	1.098028e+000	1.130819e+000	1.040280e+000	5.900062e-001	6.211585e-001	1.294150e+000	1.165760e+000	9.964219e-001	1.064713e+000	6.158513e-001	6.276613e-001	6.339884e-001	9.361095e-001	9.299813e-001	1.076889e+000	1.195582e+000	1.224519e+000	1.213589e+000	1.293578e+000	1.046494e+000	1.108339e+000	1.096083e+000	6.675271e-001	9.813009e-001	9.946417e-001	1.022934e+000	1.036783e+000	9.732842e-001	9.649534e-001	1.050149e+000	1.062923e+000	1.074636e+000	1.109093e+000	1.109747e+000	9.276026e-001	9.336342e-001	1.102223e+000	7.897640e-001	7.841713e-001	8.085657e-001	8.018989e-001	1.101449e+000	1.106265e+000	9.254896e-001	9.196213e-001	7.544503e-001	1.101756e+000	1.098295e+000	9.228858e-001	9.254425e-001	9.433883e-001	9.371304e-001	9.313224e-001	7.464929e-001	7.478047e-001	1.016790e+000	1.004301e+000	9.926991e-001	9.823902e-001	8.402194e-001	8.339788e-001	8.278554e-001	8.216629e-001	9.093428e-001	9.040817e-001	8.986425e-001	8.932570e-001	8.877433e-001	8.464260e-001	8.526098e-001	8.821974e-001	5.887394e-001	1.081569e+000	1.085998e+000	5.886025e-001	5.895558e-001	5.912342e-001	5.932597e-001	5.962645e-001	9.296207e-001	9.564229e-001	6.489120e-001	6.576758e-001	7.499173e-001	7.651917e-001	7.826372e-001	8.006910e-001	1.079375e+000	1.074553e+000	1.069831e+000	1.059862e+000	1.054865e+000	1.050271e+000	1.044692e+000	1.035989e+000	1.030739e+000	1.026436e+000	1.017760e+000	1.013948e+000	1.010064e+000	1.006962e+000	1.003671e+000	1.001274e+000	9.984608e-001	5.886528e-001	5.789221e-001	9.968050e-001	1.002626e+000	1.007281e+000	9.104409e-001	6.660133e-001	6.758040e-001	6.854500e-001	6.971176e-001	7.091798e-001	7.225044e-001	9.835023e-001	1.011158e+000	9.475541e-001	9.576035e-001	9.686418e-001	7.777642e-001	7.707455e-001	7.660842e-001	1.041427e+000	1.072523e+000	1.102918e+000	8.188085e-001	8.378889e-001	8.588783e-001	8.810394e-001	5.992482e-001	6.030471e-001	6.066310e-001	6.107126e-001	1.083633e+000	1.090016e+000	1.087451e+000	7.548657e-001	8.062930e-001	8.850723e-001	9.279145e-001	8.764676e-001	8.706604e-001	8.647339e-001	1.110298e+000	1.085293e+000	1.100974e+000	1.128756e+000	1.132382e+000	9.254870e-001	9.565117e-001	1.155221e+000	1.075259e+000	1.203705e+000	1.053988e+000	9.200404e-001	7.686304e-001	1.157740e+000	1.233139e+000	1.286706e+000	1.315621e+000	1.315386e+000	1.310954e+000	1.225646e+000	1.105409e+000	6.329483e-001	1.099329e+000	1.097499e+000	1.089960e+000	9.470427e-001	8.193450e-001	1.079358e+000	1.078137e+000	1.084617e+000	5.863737e-001	5.940734e-001	9.992040e-001	1.018946e+000	5.945573e-001	7.668220e-001	6.247873e-001	1.075887e+000	9.640343e-001	1.117796e+000	1.073813e+000	1.307542e+000	1.146560e+000	1.135931e+000	1.084638e+000	1.038939e+000	1.250338e+000	1.129846e+000	1.179249e+000	1.084564e+000	1.252126e+000	1.131690e+000	1.139655e+000	1.090106e+000	8.560369e-001	8.631051e-001	1.073928e+000	6.225709e-001	1.085306e+000	1.096143e+000	9.320514e-001	1.272003e+000	6.376670e-001	6.472335e-001	6.527397e-001	9.384243e-001	1.183983e+000	1.209419e+000	1.270767e+000	1.071848e+000	9.955575e-001	1.006541e+000	1.019710e+000	1.032348e+000	9.720137e-001	9.810417e-001	1.044379e+000	1.056235e+000	1.065778e+000	1.076571e+000	1.101522e+000	1.101882e+000	9.356343e-001	1.100144e+000	8.002850e-001	7.960247e-001	8.120465e-001	8.072232e-001	1.096513e+000	1.099607e+000	9.302982e-001	9.239786e-001	1.097546e+000	1.096267e+000	9.291616e-001	9.492005e-001	9.421578e-001	9.377612e-001	7.601204e-001	1.025303e+000	1.012482e+000	1.000625e+000	9.906480e-001	8.510366e-001	8.439204e-001	8.389072e-001	8.316983e-001	8.268430e-001	9.135753e-001	9.090504e-001	9.023481e-001	8.978173e-001	8.912302e-001	1.077688e+000	1.080438e+000	1.082885e+000	5.941429e-001	5.959120e-001	5.967100e-001	6.003182e-001	6.021031e-001	9.426038e-001	9.682966e-001	6.636006e-001	6.699742e-001	7.791752e-001	7.983807e-001	8.176499e-001	1.073430e+000	1.069977e+000	1.065025e+000	1.061066e+000	1.056054e+000	1.052034e+000	1.046898e+000	1.040158e+000	1.033965e+000	1.026833e+000	1.011906e+000	1.006085e+000	9.992613e-001	1.025688e+000	8.965738e-001	6.822119e-001	6.891855e-001	7.026916e-001	7.104904e-001	7.257431e-001	7.387971e-001	7.532886e-001	9.940627e-001	1.019367e+000	9.611892e-001	9.705697e-001	9.826674e-001	7.888375e-001	7.785071e-001	1.045861e+000	1.074838e+000	1.102269e+000	8.365281e-001	8.552581e-001	8.749716e-001	8.973232e-001	9.197630e-001	6.070893e-001	6.099584e-001	6.161067e-001	6.210571e-001	1.083353e+000	1.079980e+000	7.803348e-001	8.750150e-001	8.865523e-001	8.797733e-001	8.749389e-001	8.680642e-001	1.126142e+000	1.107904e+000	1.152160e+000	1.291230e+000	1.145742e+000	1.095010e+000	1.076254e+000	1.251780e+000	1.079106e+000	1.108156e+000	1.095101e+000	1.252247e+000	1.060508e+000	1.131990e+000	6.395675e-001	1.129481e+000	1.173144e+000	1.233955e+000	1.112502e+000	1.095472e+000	7.808277e-001	1.074947e+000	8.635106e-001	1.086516e+000	1.078755e+000	8.370200e-001	9.626639e-001	9.215734e-001	1.212577e+000	8.197398e-001	9.799298e-001	9.714038e-001	8.057665e-001	1.075449e+000	1.072939e+000	1.266267e+000	1.149636e+000	1.095665e+000	1.123037e+000	1.074710e+000	1.312628e+000	1.232929e+000	1.096223e+000	9.309913e-001	6.002218e-001	6.015886e-001	1.078760e+000	1.132134e+000	1.088972e+000	1.283952e+000	1.140204e+000	1.046364e+000	1.193361e+000	1.172787e+000	6.004958e-001	1.076903e+000	1.079855e+000	1.078959e+000	5.888191e-001	6.541703e-001	6.711900e-001	9.320138e-001	1.195457e+000	1.216187e+000	1.094786e+000	1.011530e+000	1.033036e+000	9.884152e-001	1.053772e+000	1.068341e+000	1.095144e+000	1.098379e+000	8.091609e-001	1.091446e+000	1.093610e+000	9.320655e-001	1.094715e+000	9.386301e-001	9.487374e-001	9.519243e-001	9.427341e-001	7.725944e-001	1.032984e+000	1.019327e+000	1.007252e+000	9.999204e-001	8.516696e-001	8.399430e-001	8.305922e-001	9.100209e-001	8.985071e-001	1.076705e+000	1.078066e+000	6.050023e-001	6.119347e-001	9.782392e-001	6.904009e-001	8.335296e-001	1.030671e+000	1.066495e+000	1.058626e+000	1.050608e+000	1.043217e+000	1.037007e+000	1.023419e+000	1.016297e+000	1.010487e+000	1.003423e+000	9.968527e-001	1.013439e+000	1.005959e+000	7.462822e-001	7.117538e-001	7.345064e-001	7.569052e-001	7.674250e-001	7.859396e-001	1.003753e+000	1.027185e+000	9.619627e-001	9.775381e-001	9.953293e-001	8.010602e-001	7.916602e-001	1.050181e+000	1.075842e+000	1.101394e+000	1.125337e+000	8.543146e-001	8.729328e-001	8.915527e-001	9.122389e-001	9.371016e-001	9.540824e-001	6.207429e-001	6.310338e-001	1.079377e+000	1.076877e+000	7.806344e-001	9.170350e-001	9.412400e-001	8.869697e-001	8.753109e-001	1.081837e+000	1.128609e+000	1.123430e+000	1.094029e+000	1.020612e+000	1.077721e+000	1.126510e+000	1.105378e+000	1.166209e+000	1.113839e+000	1.112735e+000	1.100948e+000	1.182837e+000	1.246614e+000	1.234696e+000	1.074642e+000	9.405251e-001	6.506495e-001	1.086311e+000	1.058608e+000	1.080943e+000	9.778672e-001	1.163391e+000	1.148515e+000	8.331823e-001	1.083405e+000	8.903975e-001	7.858592e-001	1.091572e+000	1.092199e+000	1.065993e+000	1.053536e+000	1.123699e+000	1.074700e+000	1.075739e+000	1.075275e+000	6.815746e-001	6.471034e-001	9.391074e-001	9.949193e-001	1.105024e+000	1.111160e+000	1.293947e+000	1.090942e+000	1.074963e+000	1.140141e+000	1.092938e+000	1.232850e+000	1.130672e+000	7.950470e-001	1.217454e+000	9.884269e-001	9.776053e-001	1.074292e+000	1.272661e+000	1.090093e+000	1.094145e+000	9.351556e-001	1.262968e+000	1.140254e+000	1.006170e+000	1.200442e+000	1.183633e+000	6.